# vtk DataFile Version 2.0
LBE two cylinders
ASCII
DATASET STRUCTURED_POINTS
DIMENSIONS 76 76 1
ASPECT_RATIO 1 1 1
ORIGIN 0 0 0
POINT_DATA 5776
SCALARS temp double 1
LOOKUP_TABLE default
100
100
100
100
100
100
100
100
100
100
100
100
100
100
100
100
100
100
100
100
100
100
100
100
100
100
-300
-300
-300
-300
-300
-300
-300
-300
-300
-300
-300
-300
-300
-300
100
100
100
100
100
100
100
100
100
100
100
100
100
100
100
100
100
100
100
100
100
100
100
100
100
100
-300
-300
-300
-300
-300
-300
-300
-300
-300
-300
100
99.0172
98.0545
97.1314
96.265
95.4703
94.7591
94.1403
93.6201
93.202
92.888
92.6786
92.574
92.574
92.6786
92.888
93.202
93.6201
94.1403
94.7591
95.4703
96.265
97.1314
98.0545
99.0172
100
-300
-300
-300
-300
-300
-300
-300
-300
-300
-300
-300
-300
-300
-300
100
99.0209
98.0618
97.1419
96.2784
95.486
94.7766
94.1591
93.6395
93.2214
92.9069
92.6966
92.5907
92.5891
92.692
92.8996
93.2119
93.6283
94.1469
94.7643
95.4742
96.2679
97.1334
98.0558
99.0178
100
-300
-300
-300
-300
-300
-300
-300
-300
-300
-300
100
98.0534
96.1469
94.3185
92.6026
91.0286
89.6201
88.3946
87.3643
86.5363
85.9143
85.4996
85.2923
85.2923
85.4996
85.9143
86.5363
87.3643
88.3946
89.6201
91.0286
92.6026
94.3185
96.1469
98.0534
100
-300
-300
-300
-300
-300
-300
-300
-300
-300
-300
-300
-300
-300
-300
100
98.0616
96.1629
94.3417
92.6322
91.0634
89.6589
88.4362
87.4072
86.5793
85.9562
85.5394
85.3293
85.3259
85.5293
85.94
86.5581
87.3823
88.4092
89.6316
91.0374
92.6091
94.323
96.1498
98.0548
100
-300
-300
-300
-300
-300
-300
-300
-300
-300
-300
100
97.1268
94.3127
91.6139
89.0812
86.7579
84.6789
82.8701
81.3493
80.1272
79.2091
78.597
78.2911
78.2911
78.597
79.2091
80.1272
81.3493
82.8701
84.6789
86.7579
89.0812
91.6139
94.3127
97.1268
100
-300
-300
-300
-300
-300
-300
-300
-300
-300
-300
-300
-300
-300
-300
100
97.1412
94.3408
91.6548
89.1332
86.8192
84.7472
82.9431
81.4247
80.2027
79.2827
78.667
78.3561
78.35
78.6492
79.2543
80.1654
81.381
82.8957
84.699
86.7733
89.0925
91.6218
94.3177
97.1292
100
-300
-300
-300
-300
-300
-300
-300
-300
-300
-300
100
96.2532
92.5834
89.064
85.7612
82.7315
80.0203
77.6616
75.6783
74.0846
72.8874
72.0892
71.6903
71.6903
72.0892
72.8874
74.0846
75.6783
77.6616
80.0203
82.7315
85.7612
89.064
92.5834
96.2532
100
-300
-300
-300
-300
-300
-300
-300
-300
-300
-300
-300
-300
-300
-300
100
96.2765
92.6292
89.1304
85.8458
82.8311
80.1314
77.7804
75.8011
74.2076
73.0073
72.2031
71.796
71.7861
72.1741
72.9608
74.1467
75.7297
77.703
80.0529
82.7563
85.7794
89.0767
92.5913
96.257
100
-300
-300
-300
-300
-300
-300
-300
-300
-300
-300
100
95.4455
90.9846
86.7065
82.6917
79.0089
75.7133
72.8461
70.4354
68.4981
67.0428
66.0726
65.5877
65.5877
66.0726
67.0428
68.4981
70.4354
72.8461
75.7133
79.0089
82.6917
86.7065
90.9846
95.4455
100
-300
-300
-300
-300
-300
-300
-300
-300
-300
-300
-300
-300
-300
-300
100
95.4821
91.0564
86.8108
82.8245
79.1654
75.8878
73.0328
70.6282
68.6913
67.2312
66.2516
65.7537
65.7381
66.2057
67.158
68.5955
70.5157
72.9108
75.7641
79.0475
82.72
86.7261
90.9969
95.4513
100
-300
-300
-300
-300
-300
-300
-300
-300
-300
-300
100
94.7132
89.5351
84.5692
79.9089
75.634
71.8086
68.4804
65.6821
63.4334
61.7442
60.618
60.0551
60.0551
60.618
61.7442
63.4334
65.6821
68.4804
71.8086
75.634
79.9089
84.5692
89.5351
94.7132
100
-300
-300
-300
-300
-300
-300
-300
-300
-300
-300
-300
-300
-300
-300
100
94.7693
89.6453
84.7292
80.1126
75.874
72.0764
68.7669
65.978
63.7299
62.0332
60.8927
60.3098
60.2858
60.822
61.9205
63.5823
65.8048
68.579
71.8857
75.6926
79.9517
84.5988
89.5536
94.722
100
-300
-300
-300
-300
-300
-300
-300
-300
-300
-300
100
94.0621
88.2464
82.669
77.4349
72.6336
68.3371
64.5991
61.4562
58.9306
57.0334
55.7685
55.1364
55.1364
55.7685
57.0334
58.9306
61.4562
64.5991
68.3371
72.6336
77.4349
82.669
88.2464
94.0621
100
-300
-300
-300
-300
-300
-300
-300
-300
-300
-300
-300
-300
-300
-300
100
94.1466
88.4122
82.9097
77.7415
72.9949
68.7403
65.0305
61.902
59.3773
57.4689
56.1823
55.5199
55.4835
56.0754
57.2983
59.154
61.64
64.7464
68.452
72.7205
77.4982
82.7126
88.2736
94.0751
100
-300
-300
-300
-300
-300
-300
-300
-300
-300
-300
100
93.4945
87.1228
81.0122
75.2777
70.0175
65.3103
61.215
57.7717
55.0047
52.9262
51.5405
50.8479
50.8479
51.5405
52.9262
55.0047
57.7717
61.215
65.3103
70.0175
75.2777
81.0122
87.1228
93.4945
100
-300
-300
-300
-300
-300
-300
-300
-300
-300
-300
-300
-300
-300
-300
100
93.6195
87.368
81.3684
75.7315
70.5523
65.9073
61.8538
58.4319
55.6663
53.5711
52.153
51.4155
51.3613
51.9939
53.3172
55.3338
58.0419
61.4311
65.4784
70.1442
75.3696
81.0753
87.1619
93.5131
100
-300
-300
-300
-300
-300
-300
-300
-300
-300
-300
100
93.0091
86.162
79.5955
73.4332
67.7805
62.7221
58.3213
54.6212
51.6478
49.4142
47.9251
47.1809
47.1809
47.9251
49.4142
51.6478
54.6212
58.3213
62.7221
67.7805
73.4332
79.5955
86.162
93.0091
100
-300
-300
-300
-300
-300
-300
-300
-300
-300
-300
-300
-300
-300
-300
100
93.1909
86.5188
80.1138
74.0937
68.5592
63.5915
59.2519
55.583
52.6117
50.3537
48.8173
48.0071
47.9276
48.5839
49.9815
52.1244
55.0116
58.6327
62.9634
67.9616
73.5639
79.6848
86.2172
93.0353
100
-300
-300
-300
-300
-300
-300
-300
-300
-300
-300
100
92.602
85.3562
78.4074
71.8862
65.9044
60.5515
55.8946
51.979
48.8326
46.469
44.8932
44.1057
44.1057
44.8932
46.469
48.8326
51.979
55.8946
60.5515
65.9044
71.8862
78.4074
85.3562
92.602
100
-300
-300
-300
-300
-300
-300
-300
-300
-300
-300
-300
-300
-300
-300
100
92.8623
85.867
79.1495
72.8323
67.0201
61.7975
57.2285
53.3579
50.2146
47.8158
46.1717
45.289
45.1742
45.8348
47.2784
49.5112
52.5333
56.3351
60.8916
66.1584
72.0686
78.5312
85.4323
92.6381
100
-300
-300
-300
-300
-300
-300
-300
-300
-300
-300
100
92.2672
84.6934
77.4301
70.6138
64.3612
58.7661
53.8984
49.8057
46.5169
44.0463
42.3993
41.5761
41.5761
42.3993
44.0463
46.5169
49.8057
53.8984
58.7661
64.3612
70.6138
77.4301
84.6934
92.2672
100
-300
-300
-300
-300
-300
-300
-300
-300
-300
-300
-300
-300
-300
-300
100
92.6338
85.413
78.4758
71.9473
65.9344
60.5236
55.7806
51.7516
48.4673
45.9468
44.2025
43.244
43.0806
43.723
45.1822
47.4667
50.5791
54.5106
59.2363
64.7104
70.8628
77.598
84.7959
92.3155
100
-300
-300
-300
-300
-300
-300
-300
-300
-300
-300
100
91.997
84.1586
76.6415
69.5871
63.1161
57.3255
52.2878
48.0522
44.6485
42.0917
40.3871
39.5352
39.5352
40.3871
42.0917
44.6485
48.0522
52.2878
57.3255
63.1161
69.5871
76.6415
84.1586
91.997
100
-300
-300
-300
-300
-300
-300
-300
-300
-300
-300
-300
-300
-300
-300
100
92.5053
85.1564
78.0919
71.4373
65.2997
59.766
54.9023
50.7558
47.3585
44.7318
42.8909
41.849
41.6198
42.2181
43.6592
45.9555
49.1124
53.1232
57.9634
63.5864
69.9197
76.8638
84.2933
92.0601
100
-300
-300
-300
-300
-300
-300
-300
-300
-300
-300
100
91.7831
83.7353
76.0174
68.7744
62.1306
56.1853
51.013
46.6643
43.1697
40.5446
38.7945
37.9199
37.9199
38.7945
40.5446
43.1697
46.6643
51.013
56.1853
62.1306
68.7744
76.0174
83.7353
91.7831
100
-300
-300
-300
-300
-300
-300
-300
-300
-300
-300
-300
-300
-300
-300
100
92.4768
85.0972
77.9978
71.3018
65.1149
59.5223
54.5894
50.3636
46.8779
44.1563
42.2177
41.0801
40.7628
41.2866
42.6724
44.9378
48.0923
52.132
57.0338
62.7507
69.2086
76.3043
83.9073
91.8631
100
-300
-300
-300
-300
-300
-300
-300
-300
-300
-300
100
91.6171
83.4066
75.5327
68.1434
61.3654
55.3
50.0232
45.5867
42.0215
39.3434
37.558
36.6657
36.6657
37.558
39.3434
42.0215
45.5867
50.0232
55.3
61.3654
68.1434
75.5327
83.4066
91.6171
100
-300
-300
-300
-300
-300
-300
-300
-300
-300
-300
-300
-300
-300
-300
100
92.549
85.2368
78.1952
71.5431
65.3819
59.7939
54.842
50.5727
47.02
44.2104
42.1675
40.9159
40.4823
40.8956
42.1844
44.3728
47.476
51.4939
56.4057
62.165
68.696
75.8926
83.6192
91.7148
100
-300
-300
-300
-300
-300
-300
-300
-300
-300
-300
100
91.4906
83.1563
75.1635
67.6628
60.7824
54.6256
49.2692
44.7658
41.1469
38.4284
36.6161
35.7103
35.7103
36.6161
38.4284
41.1469
44.7658
49.2692
54.6256
60.7824
67.6628
75.1635
83.1563
91.4906
100
-300
-300
-300
-300
-300
-300
-300
-300
-300
-300
-300
-300
-300
-300
100
92.7234
85.5781
78.6885
72.1666
66.1075
60.5879
55.6668
51.3884
47.7866
44.8911
42.7315
41.3406
40.7555
41.0155
42.1595
44.2204
47.2206
51.165
56.0362
61.7888
68.3465
75.6
83.4088
91.6049
100
-300
-300
-300
-300
-300
-300
-300
-300
-300
-300
100
91.396
82.9691
74.8876
67.3035
60.3467
54.1215
48.7057
44.1522
40.4931
37.7445
35.912
34.9962
34.9962
35.912
37.7445
40.4931
44.1522
48.7057
54.1215
60.3467
67.3035
74.8876
82.9691
91.396
100
-300
-300
-300
-300
-300
-300
-300
-300
-300
-300
-300
-300
-300
-300
100
93.0021
86.1253
79.4843
73.1814
67.3028
61.9175
57.0778
52.8239
49.1887
46.2047
43.9088
42.3451
41.5643
41.6201
42.5645
44.4419
47.2835
51.1009
55.881
61.5805
68.1227
75.3959
83.2542
91.5218
100
-300
-300
-300
-300
-300
-300
-300
-300
-300
-300
100
91.3267
82.8318
74.6852
67.04
60.0272
53.7518
48.2923
43.7022
40.0137
37.2429
35.3957
34.4725
34.4725
35.3957
37.2429
40.0137
43.7022
48.2923
53.7518
60.0272
67.04
74.6852
82.8318
91.3267
100
-300
-300
-300
-300
-300
-300
-300
-300
-300
-300
-300
-300
-300
-300
100
93.3875
86.8836
80.5906
74.5987
68.9829
63.801
59.0963
54.9017
51.247
48.1668
45.707
43.9268
42.8955
42.6861
43.3676
44.9989
47.6219
51.2563
55.8942
61.4955
67.9842
75.2464
83.1309
91.4525
100
-300
-300
-300
-300
-300
-300
-300
-300
-300
-300
100
91.2768
82.733
74.5395
66.8503
59.7971
53.4857
47.9948
43.3783
39.6686
36.8819
35.0241
34.0956
34.0956
35.0241
36.8819
39.6686
43.3783
47.9948
53.4857
59.7971
66.8503
74.5395
82.733
91.2768
100
-300
-300
-300
-300
-300
-300
-300
-300
-300
-300
-300
-300
-300
-300
100
93.8816
87.8572
82.0148
76.4302
71.1641
66.2607
61.7498
57.653
53.9928
50.8037
48.1422
46.0885
44.7383
44.1904
44.5361
45.8514
48.1908
51.583
56.0264
61.4852
67.8854
75.1124
83.0097
91.3815
100
-300
-300
-300
-300
-300
-300
-300
-300
-300
-300
100
91.2415
82.6632
74.4366
66.7163
59.6347
53.2977
47.7847
43.1495
39.4248
36.6269
34.7616
33.8293
33.8293
34.7615
36.6269
39.4248
43.1495
47.7847
53.2977
59.6347
66.7163
74.4366
82.6632
91.2415
100
-300
-300
-300
-300
-300
-300
-300
-300
-300
-300
-300
-300
-300
-300
100
94.485
89.0482
83.7614
78.6844
73.8616
69.3198
65.0708
61.1182
57.4694
54.1536
51.2387
48.8361
47.0805
46.1064
46.0328
46.9549
48.9408
52.0284
56.2231
61.4946
67.7734
74.9465
82.854
91.2885
100
-300
-300
-300
-300
-300
-300
-300
-300
-300
-300
100
91.2171
82.6148
74.3652
66.6234
59.522
53.1674
47.639
42.9909
39.2558
36.4501
34.5795
33.6447
33.6447
34.5795
36.4501
39.2558
42.9909
47.639
53.1674
59.522
66.6234
74.3652
82.6148
91.2171
100
-300
-300
-300
-300
-300
-300
-300
-300
-300
-300
-300
-300
-300
-300
100
95.1961
90.4538
85.8285
81.3632
77.0841
72.9984
69.0942
65.3473
61.7365
58.2715
55.0299
52.1751
49.9032
48.3979
47.8107
48.2567
49.8157
52.5336
56.4228
61.4603
67.5842
74.6883
82.6144
91.1449
100
-300
-300
-300
-300
-300
-300
-300
-300
-300
-300
100
91.2004
82.5819
74.3167
66.5602
59.4453
53.0787
47.5398
42.8829
39.1408
36.3297
34.4557
33.5191
33.5191
34.4557
36.3297
39.1407
42.8829
47.5398
53.0787
59.4453
66.5602
74.3166
82.5819
91.2004
100
-300
-300
-300
-300
-300
-300
-300
-300
-300
-300
-300
-300
-300
-300
100
96.0094
92.0644
88.2044
84.4561
80.8285
77.3076
73.8535
70.4022
66.8795
63.2421
59.561
56.1038
53.1705
51.0103
49.8076
49.6923
50.7506
53.0327
56.5567
61.3084
67.2388
74.2575
82.22
90.9065
100
-300
-300
-300
-300
-300
-300
-300
-300
-300
-300
100
91.1893
82.5599
74.2842
66.5179
59.3941
53.0194
47.4736
42.8108
39.0639
36.2493
34.3729
33.4351
33.4351
34.3729
36.2493
39.0639
42.8107
47.4735
53.0194
59.3941
66.5179
74.2842
82.5599
91.1893
100
-300
-300
-300
-300
-300
-300
-300
-300
-300
-300
-300
-300
-300
-300
100
96.9149
93.8608
90.863
87.9347
85.0707
82.2394
79.3731
76.3577
73.0297
69.2136
64.893
60.599
56.8132
53.8587
51.9389
51.1828
51.672
53.4544
56.5504
60.9558
66.6407
73.5449
81.5614
90.4971
100
-300
-300
-300
-300
-300
-300
-300
-300
-300
-300
100
91.182
82.5455
74.2629
66.4902
59.3605
52.9805
47.4301
42.7635
39.0135
36.1966
34.3186
33.38
33.38
34.3186
36.1965
39.0134
42.7634
47.43
52.9804
59.3604
66.4901
74.2628
82.5454
91.182
100
-300
-300
-300
-300
-300
-300
-300
-300
-300
-300
-300
-300
-300
-300
100
97.8968
95.8124
93.7606
91.7457
89.7552
87.7501
85.6482
83.2929
80.3996
76.4976
71.0961
65.5757
60.6975
56.8122
54.0924
52.6354
52.5012
53.7265
56.3296
60.315
65.6763
72.4003
80.46
89.7669
100
-300
-300
-300
-300
-300
-300
-300
-300
-300
-300
100
91.1773
82.5362
74.2492
66.4724
59.3388
52.9555
47.4021
42.733
38.981
36.1626
34.2836
33.3445
33.3445
34.2835
36.1625
38.9808
42.7328
47.4019
52.9553
59.3387
66.4722
74.2491
82.5361
91.1773
100
-300
-300
-300
-300
-300
-300
-300
-300
-300
-300
-300
-300
-300
-300
100
98.9339
97.8765
96.8336
95.8055
94.782
93.7348
92.6008
91.2393
89.312
85.9
78.1617
70.7824
64.5762
59.6801
56.1294
53.949
53.1619
53.7857
55.8317
59.3075
64.2267
70.6288
78.6146
88.3748
100
-300
-300
-300
-300
-300
-300
-300
-300
-300
-300
100
91.1743
82.5303
74.2405
66.4611
59.3251
52.9396
47.3843
42.7136
38.9604
36.141
34.2614
33.322
33.3219
34.2613
36.1408
38.9601
42.7134
47.384
52.9393
59.3248
66.4608
74.2403
82.5301
91.1743
100
-300
-300
-300
-300
-300
-300
-300
-300
-300
-300
-300
-300
-300
-300
100
100
100
100
100
100
100
100
100
100
100
85.4311
75.5611
68.0418
62.2201
57.901
55.0289
53.5919
53.5896
55.0221
57.89
62.2052
68.0241
75.5425
85.4161
100
100
100
100
100
100
100
100
100
100
100
100
91.1725
82.5266
74.2351
66.454
59.3166
52.9297
47.3733
42.7016
38.9476
36.1276
34.2475
33.3079
33.3078
34.2473
36.1273
38.9471
42.7011
47.3727
52.9292
59.3161
66.4535
74.2347
82.5263
91.1723
100
-300
-300
-300
-300
-300
-300
-300
-300
-300
-300
-300
-300
-300
-300
-300
-300
-300
-300
-300
-300
-300
-300
-300
-300
100
88.3763
78.614
70.6239
64.2163
59.2912
55.8095
53.7579
53.1289
53.9114
56.0879
59.6356
64.5299
70.7363
78.1184
85.8626
89.2777
91.2076
92.5719
93.709
94.7597
95.7871
96.8195
97.8669
98.9291
100
100
91.1714
82.5244
74.2318
66.4497
59.3114
52.9237
47.3665
42.6942
38.9397
36.1193
34.239
33.2992
33.2991
34.2386
36.1187
38.9389
42.6934
47.3656
52.9227
59.3104
66.4489
74.2311
82.5239
91.1711
100
-300
-300
-300
-300
-300
-300
-300
-300
-300
-300
-300
-300
-300
-300
-300
-300
-300
-300
-300
-300
-300
-300
-300
-300
100
89.7589
80.4429
72.3735
65.6395
60.2685
56.2741
53.6628
52.4305
52.5587
54.0111
56.7277
60.6115
65.4899
71.0127
76.4183
80.3249
83.2233
85.5845
87.6932
89.706
91.7052
93.7295
95.7913
97.8862
100
100
91.1707
82.523
74.2298
66.4471
59.3082
52.92
47.3624
42.6897
38.9348
36.1142
34.2336
33.2937
33.2935
34.2331
36.1132
38.9336
42.6882
47.3608
52.9183
59.3066
66.4457
74.2286
82.5222
91.1702
100
-300
-300
-300
-300
-300
-300
-300
-300
-300
-300
-300
-300
-300
-300
-300
-300
-300
-300
-300
-300
-300
-300
-300
-300
100
90.4794
81.5259
73.4919
66.5708
60.8702
56.4506
53.342
51.5491
51.0513
51.8009
53.7164
56.6689
60.455
64.7517
69.0772
72.8999
76.2363
79.2618
82.1399
84.9848
87.8639
90.8086
93.8239
96.8963
100
100
91.1703
82.5222
74.2286
66.4456
59.3063
52.9178
47.3599
42.6869
38.9318
36.1109
34.2302
33.2901
33.2897
34.2292
36.1093
38.9297
42.6844
47.3571
52.9149
59.3035
66.4431
74.2266
82.5208
91.1695
100
-300
-300
-300
-300
-300
-300
-300
-300
-300
-300
-300
-300
-300
-300
-300
-300
-300
-300
-300
-300
-300
-300
-300
-300
100
90.8763
82.16
74.1688
67.1229
61.1676
56.3937
52.8503
50.5518
49.4806
49.5862
50.7825
52.9398
55.8735
59.3344
63.0225
66.67
70.2059
73.6734
77.1466
80.6894
84.3414
88.1163
92.0047
95.9793
100
100
91.17
82.5217
74.2279
66.4446
59.3051
52.9164
47.3582
42.6851
38.9297
36.1086
34.2277
33.2873
33.2868
34.2261
36.106
38.9262
42.6809
47.3536
52.9116
59.3005
66.4404
74.2245
82.5193
91.1688
100
-300
-300
-300
-300
-300
-300
-300
-300
-300
-300
-300
-300
-300
-300
-300
-300
-300
-300
-300
-300
-300
-300
-300
-300
100
91.0969
82.5194
74.5482
67.4018
61.2393
56.1674
52.2484
49.5056
47.9268
47.4661
48.0437
49.5445
51.817
54.6774
57.9296
61.4102
65.0413
68.8133
72.7473
76.8672
81.1843
85.6912
90.3607
95.149
100
100
91.1699
82.5214
74.2274
66.444
59.3043
52.9154
47.3571
42.6837
38.9281
36.1067
34.2255
33.2848
33.2839
34.2228
36.1024
38.9224
42.6768
47.3495
52.9076
59.2967
66.4371
74.2218
82.5174
91.1678
100
-300
-300
-300
-300
-300
-300
-300
-300
-300
-300
-300
-300
-300
-300
-300
-300
-300
-300
-300
-300
-300
-300
-300
-300
100
91.2149
82.7084
74.732
67.4945
61.1569
55.8331
51.5933
48.4681
46.4523
45.508
45.5673
46.5347
48.2912
50.7023
53.6332
56.9725
60.6523
64.6431
68.9374
73.5312
78.4121
83.5522
88.9064
94.4134
100
100
91.1698
82.5212
74.2271
66.4435
59.3037
52.9146
47.356
42.6824
38.9264
36.1047
34.223
33.2818
33.2803
34.2187
36.0977
38.9172
42.6713
47.3438
52.9019
59.2913
66.4323
74.2179
82.5146
91.1663
100
-300
-300
-300
-300
-300
-300
-300
-300
-300
-300
-300
-300
-300
-300
-300
-300
-300
-300
-300
-300
-300
-300
-300
-300
100
91.2712
82.7914
74.7909
67.4676
60.9795
55.4426
50.9319
47.4837
45.0999
43.7518
43.3848
43.9228
45.2745
47.341
50.0264
53.2505
56.957
61.111
65.6896
70.6706
76.0234
81.7024
87.6454
93.7746
100
100
91.1697
82.521
74.2268
66.4431
59.3031
52.9137
47.3549
42.6808
38.9244
36.1021
34.2197
33.2778
33.2754
34.2128
36.091
38.9096
42.6631
47.3352
52.8933
59.2832
66.425
74.2119
82.5104
91.1642
100
-300
-300
-300
-300
-300
-300
-300
-300
-300
-300
-300
-300
-300
-300
-300
-300
-300
-300
-300
-300
-300
-300
-300
-300
100
91.29
82.8095
74.7732
67.3693
60.7516
55.0358
50.2992
46.5828
43.8948
42.2156
41.5031
41.6984
42.732
44.531
47.0259
50.1577
53.8803
58.1588
62.9629
68.2587
74.0018
80.1322
86.5728
93.2305
100
100
91.1696
82.5208
74.2265
66.4425
59.3023
52.9127
47.3534
42.6788
38.9217
36.0985
34.2151
33.2719
33.2683
34.2043
36.0811
38.8984
42.6509
47.3224
52.8804
59.2708
66.414
74.2029
82.504
91.1608
100
-300
-300
-300
-300
-300
-300
-300
-300
-300
-300
-300
-300
-300
-300
-300
-300
-300
-300
-300
-300
-300
-300
-300
-300
100
91.2865
82.7891
74.7113
67.2333
60.5046
54.6399
49.7176
45.7821
42.8472
40.901
39.9123
39.8364
40.6208
42.2118
44.5587
47.6172
51.3505
55.7255
60.7086
66.2584
72.3204
78.8232
85.677
92.7756
100
100
91.1695
82.5205
74.226
66.4419
59.3013
52.9112
47.3514
42.676
38.9179
36.0934
34.2085
33.2635
33.2578
34.1917
36.0663
38.8817
42.6326
47.303
52.8609
59.2521
66.3971
74.189
82.4941
91.1557
100
-300
-300
-300
-300
-300
-300
-300
-300
-300
-300
-300
-300
-300
-300
-300
-300
-300
-300
-300
-300
-300
-300
-300
-300
100
91.27
82.7467
74.6256
67.0809
60.2585
54.2714
49.1988
45.0873
41.9553
39.7974
38.5912
38.303
38.8938
40.3239
42.5561
45.5576
49.2986
53.7489
58.8736
64.6264
70.9457
77.751
84.9423
92.4023
100
100
91.1693
82.5202
74.2254
66.441
59.2999
52.9092
47.3485
42.672
38.9124
36.0861
34.1989
33.2513
33.2426
34.1733
36.0447
38.8571
42.6054
47.2743
52.8317
59.224
66.3718
74.1682
82.4792
91.1479
100
-300
-300
-300
-300
-300
-300
-300
-300
-300
-300
-300
-300
-300
-300
-300
-300
-300
-300
-300
-300
-300
-300
-300
-300
100
91.2457
82.6918
74.528
66.9244
60.0236
53.9374
48.7449
44.4948
41.2084
38.8856
37.5109
37.0593
37.5015
38.8084
40.953
43.9109
47.658
52.1673
57.4031
63.3165
69.8406
76.8879
84.3504
92.1012
100
100
91.1691
82.5197
74.2246
66.4397
59.2981
52.9064
47.3445
42.6664
38.9047
36.0757
34.1853
33.2338
33.2208
34.1468
36.0134
38.8212
42.5658
47.232
52.7886
59.1824
66.3341
74.137
82.457
91.1363
100
-300
-300
-300
-300
-300
-300
-300
-300
-300
-300
-300
-300
-300
-300
-300
-300
-300
-300
-300
-300
-300
-300
-300
-300
100
91.2163
82.6289
74.424
66.7683
59.8025
53.637
48.351
43.9938
40.5893
38.1412
36.6388
36.0637
36.394
37.6084
39.6874
42.6129
46.3656
50.9209
56.2434
62.2824
68.9671
76.2051
83.8816
91.8627
100
100
91.1688
82.5191
74.2236
66.438
59.2955
52.9026
47.339
42.6586
38.894
36.0613
34.1662
33.2093
33.1901
34.1092
35.9687
38.7698
42.5086
47.1708
52.7259
59.1214
66.2787
74.091
82.424
91.1191
100
-300
-300
-300
-300
-300
-300
-300
-300
-300
-300
-300
-300
-300
-300
-300
-300
-300
-300
-300
-300
-300
-300
-300
-300
100
91.1822
82.5586
74.3134
66.6114
59.5917
53.3638
48.0062
43.5688
40.0768
37.5363
35.9402
35.2747
35.5232
36.67
38.7014
41.604
45.3622
49.9535
55.3431
61.4791
68.2882
75.674
83.5169
91.6771
100
100
91.1684
82.5183
74.2221
66.4357
59.292
52.8975
47.3315
42.6481
38.8793
36.0415
34.14
33.1754
33.1473
34.0567
35.9061
38.6972
42.4273
47.0833
52.6357
59.0332
66.1981
74.0238
82.3756
91.0937
100
-300
-300
-300
-300
-300
-300
-300
-300
-300
-300
-300
-300
-300
-300
-300
-300
-300
-300
-300
-300
-300
-300
-300
-300
100
91.1421
82.4781
74.1917
66.4471
59.3824
53.1059
47.6955
43.2007
39.6471
37.0419
35.3805
34.6519
34.8433
35.9433
37.942
40.8298
44.594
49.2137
54.655
60.8652
67.7692
75.2679
83.2379
91.5351
100
100
91.1679
82.5172
74.2202
66.4327
59.2874
52.8907
47.3217
42.634
38.8598
36.0149
34.1046
33.1295
33.0891
33.9847
35.8196
38.5964
42.3137
46.9599
52.5076
58.9071
66.082
73.9265
82.3052
91.0567
100
-300
-300
-300
-300
-300
-300
-300
-300
-300
-300
-300
-300
-300
-300
-300
-300
-300
-300
-300
-300
-300
-300
-300
-300
100
91.0928
82.3813
74.0503
66.2644
59.1611
52.8477
47.4005
42.868
39.275
36.6291
34.9263
34.1577
34.3129
35.3832
37.3618
40.2419
44.0129
48.6557
54.1367
60.4031
67.3788
74.9624
83.028
91.4282
100
100
91.1673
82.5158
74.2178
66.4289
59.2815
52.8819
47.3088
42.6157
38.8342
35.9799
34.0578
33.0683
33.011
33.8877
35.7022
38.4586
42.1571
46.7885
52.3281
58.7287
65.9165
73.7866
82.2034
91.003
100
-300
-300
-300
-300
-300
-300
-300
-300
-300
-300
-300
-300
-300
-300
-300
-300
-300
-300
-300
-300
-300
-300
-300
-300
100
91.0292
82.2585
73.8759
66.0472
58.9099
52.5694
47.0999
42.5475
38.9352
36.2696
34.5466
33.7579
33.8946
34.95
36.9195
39.7982
43.5775
48.2395
53.7514
60.0603
67.0894
74.7361
82.8726
91.3491
100
100
91.1665
82.514
74.2148
66.424
59.274
52.8707
47.2924
42.5922
38.8013
35.9346
33.997
32.9884
32.9085
33.7593
35.5456
38.2731
41.9445
46.5536
52.0794
58.4791
65.6824
73.5868
82.0569
90.9253
100
-300
-300
-300
-300
-300
-300
-300
-300
-300
-300
-300
-300
-300
-300
-300
-300
-300
-300
-300
-300
-300
-300
-300
-300
100
90.944
82.096
73.6499
65.7743
58.6059
52.2476
46.7698
42.2147
38.6023
35.9367
34.2128
33.422
33.5561
34.6097
36.5797
39.463
43.2525
47.9314
53.4678
59.809
66.8779
74.571
82.7593
91.2915
100
100
91.1655
82.5119
74.2111
66.418
59.2648
52.8568
47.272
42.5628
38.7598
35.8774
33.9197
32.8861
32.7762
33.5925
35.3405
38.028
41.6604
46.2361
51.7393
58.1333
65.3537
73.3029
81.8464
90.8128
100
-300
-300
-300
-300
-300
-300
-300
-300
-300
-300
-300
-300
-300
-300
-300
-300
-300
-300
-300
-300
-300
-300
-300
-300
100
90.8258
81.8735
73.3465
65.4171
58.2203
51.8544
46.3836
41.8443
38.2515
35.6056
33.8995
33.1236
33.2699
34.3337
36.3132
39.2069
43.0089
47.7037
53.2603
59.6264
66.7249
74.4519
82.6778
91.2501
100
100
91.1644
82.5094
74.2066
66.4109
59.2536
52.8399
47.2471
42.5268
38.7087
35.8065
33.8232
32.7578
32.6092
33.38
35.0769
37.7096
41.2873
45.8136
51.28
57.6588
64.8953
72.9003
81.5434
90.6492
100
-300
-300
-300
-300
-300
-300
-300
-300
-300
-300
-300
-300
-300
-300
-300
-300
-300
-300
-300
-300
-300
-300
-300
-300
100
90.658
81.5619
72.9299
64.9381
57.7175
51.3573
45.9124
41.4103
37.8588
35.2537
33.5845
32.8404
33.013
34.0985
36.0962
39.0059
42.8233
47.5341
53.1082
59.4941
66.615
74.3669
82.6197
91.2206
100
100
91.1631
82.5064
74.2015
66.4025
59.2406
52.82
47.2175
42.4837
38.6473
35.7206
33.7058
32.6003
32.4026
33.115
34.7449
37.304
40.8057
45.26
50.6679
57.0142
64.2592
72.3291
81.1045
90.4082
100
-300
-300
-300
-300
-300
-300
-300
-300
-300
-300
-300
-300
-300
-300
-300
-300
-300
-300
-300
-300
-300
-300
-300
-300
100
90.4142
81.1168
72.3488
64.2876
57.053
50.719
45.3251
40.8866
37.402
34.8607
33.2489
32.5539
32.7673
33.8858
35.9101
38.8416
42.6776
47.4052
52.9955
59.3979
66.5361
74.3064
82.5787
91.1999
100
100
91.1616
82.5032
74.1958
66.3931
59.2257
52.7971
47.1832
42.4334
38.5751
35.6191
33.5659
32.4115
32.1529
32.7917
34.3355
36.798
40.1963
44.5477
49.8645
56.148
63.3812
71.5169
80.4611
90.0457
100
-300
-300
-300
-300
-300
-300
-300
-300
-300
-300
-300
-300
-300
-300
-300
-300
-300
-300
-300
-300
-300
-300
-300
-300
100
90.0496
80.4692
71.5298
63.3997
56.1733
49.8976
44.5898
40.2485
36.8612
34.4102
32.878
32.2503
32.5189
33.6817
35.741
38.7001
42.5581
47.304
52.9101
59.3269
66.4791
74.2633
82.5497
91.1853
100
100
91.1601
82.4998
74.1896
66.3828
59.2093
52.7717
47.1446
42.3763
38.4925
35.5021
33.4034
32.1904
31.8581
32.4065
33.8426
36.1809
39.4417
43.6493
48.8281
54.9995
62.1768
70.357
79.4997
89.4798
100
-300
-300
-300
-300
-300
-300
-300
-300
-300
-300
-300
-300
-300
-300
-300
-300
-300
-300
-300
-300
-300
-300
-300
-300
100
89.4823
79.5049
70.3653
62.1887
55.0156
48.8492
43.6761
39.4749
36.221
33.89
32.4612
31.9198
32.2584
33.4767
35.5792
38.5716
42.4552
47.2211
52.8432
59.2734
66.4373
74.2324
82.5293
91.1751
100
100
91.1587
82.4965
74.1835
66.3723
59.192
52.7444
47.1026
42.3135
38.4007
35.3708
33.2196
31.9384
31.5192
31.9594
33.2642
35.4473
38.5307
42.5434
47.5205
53.5034
60.5415
68.6948
78.0252
88.5421
100
-300
-300
-300
-300
-300
-300
-300
-300
-300
-300
-300
-300
-300
-300
-300
-300
-300
-300
-300
-300
-300
-300
-300
-300
100
88.5436
78.0285
68.7
60.549
53.5135
47.5338
42.5602
38.5514
35.4723
33.2937
31.9934
31.5576
31.9807
33.2653
35.4188
38.4499
42.3626
47.1503
52.7889
59.232
66.4063
74.2102
82.5149
91.1681
100
100
91.1575
82.4937
74.178
66.3624
59.175
52.7166
47.059
42.2469
38.3019
35.2281
33.0179
31.6591
31.1401
31.4546
32.6041
34.5998
37.462
41.2209
45.9166
51.6037
58.3621
66.3201
75.6966
86.8381
100
-300
-300
-300
-300
-300
-300
-300
-300
-300
-300
-300
-300
-300
-300
-300
-300
-300
-300
-300
-300
-300
-300
-300
-300
100
86.8391
75.6986
66.3233
58.3667
51.61
45.9247
41.2312
37.4748
34.6151
32.6223
31.4755
31.1637
31.685
33.0459
35.2575
38.3321
42.277
47.0881
52.7439
59.1995
66.3832
74.1943
82.505
91.1633
100
100
91.157
82.492
74.174
66.3542
59.1599
52.6904
47.016
42.1795
38.2
35.0784
32.8036
31.3593
30.7292
30.902
31.8741
33.6514
36.2494
39.6935
44.0199
49.2808
55.5586
63.0045
71.9535
83.3055
100
100
100
100
100
100
100
100
100
100
100
100
100
100
100
100
100
100
100
100
100
100
100
100
100
100
83.3061
71.9547
63.0065
55.5614
49.2846
44.0248
39.6997
36.2571
33.6607
31.885
30.9145
30.7433
31.3749
32.8204
35.0961
38.2182
42.1976
47.0335
52.7068
59.1746
66.3668
74.1839
82.4988
91.1604
100
100
91.1574
82.4924
74.173
66.3498
59.1489
52.6686
46.9772
42.1156
38.1
34.928
32.5846
31.0487
30.2986
30.317
31.0937
32.627
34.9241
38.0003
41.8782
46.5887
52.173
58.6872
66.1947
74.6638
83.3054
86.838
88.5418
89.4793
90.045
90.4069
90.647
90.8093
90.9197
90.994
91.0426
91.0719
91.0856
91.0856
91.0719
91.0426
90.994
90.9197
90.8093
90.647
90.4069
90.045
89.4794
88.5418
86.838
83.3056
74.6642
66.1954
58.6884
52.1747
46.591
41.8812
38.004
34.9287
32.6325
31.1002
30.3245
30.307
31.0579
32.5946
34.9385
38.1108
42.1264
46.9877
52.6783
59.1577
66.3572
74.1789
82.4964
91.1595
100
100
91.1596
82.4961
74.1769
66.3516
59.1455
52.6553
46.9477
42.0611
38.0091
34.7857
32.3715
30.7404
29.8649
29.7208
30.2901
31.5622
33.5338
36.2068
39.5855
43.6723
48.4597
53.9128
59.9246
66.1946
71.9533
75.6963
78.0247
79.4988
80.4596
81.102
81.5392
81.8396
82.046
82.1861
82.2781
82.3336
82.3597
82.3597
82.3336
82.2781
82.1861
82.046
81.8396
81.5392
81.102
80.4596
79.4988
78.0248
75.6963
71.9534
66.1949
59.925
53.9135
48.4606
43.6737
39.5873
36.209
33.5365
31.5654
30.2939
29.7251
29.8698
30.7458
32.3773
34.7918
38.0154
42.0674
46.9538
52.661
59.1506
66.356
74.1803
82.4984
91.1608
100
100
91.1644
82.505
74.1884
66.3635
59.1543
52.6561
46.9339
42.0238
37.9364
34.6622
32.1774
30.4506
29.4482
29.1389
29.4963
30.5006
32.1371
34.3942
37.2584
40.7079
44.7005
49.1544
53.9128
58.6871
63.0043
66.3197
68.6941
70.3558
71.5148
72.3256
72.8944
73.2933
73.5715
73.7622
73.8883
73.9648
74.0009
74.0009
73.9648
73.8883
73.7622
73.5715
73.2933
72.8944
72.3256
71.5148
70.3558
68.6941
66.3198
63.0044
58.6872
53.9131
49.1548
44.701
40.7086
37.2594
34.3954
32.1387
30.5024
29.4985
29.1413
29.451
30.4537
32.1807
34.6657
37.94
42.0274
46.9374
52.6594
59.1572
66.366
74.1904
82.5063
91.1651
100
100
91.1731
82.5216
74.2115
66.3905
59.1815
52.6786
46.9448
42.0139
37.8939
34.5714
32.0185
30.1987
29.072
28.6003
28.7492
29.4896
30.7964
32.6461
35.0114
37.8543
41.1156
44.7004
48.4596
52.1728
55.5583
58.3616
60.5406
62.1753
63.3786
64.2548
64.8881
65.342
65.6635
65.8866
66.0354
66.1262
66.1691
66.1691
66.1262
66.0354
65.8866
65.6635
65.342
64.8881
64.2548
63.3786
62.1753
60.5406
58.3616
55.5584
52.1729
48.4597
44.7007
41.1159
37.8548
35.012
32.6468
30.7973
29.4906
28.7504
28.6017
29.0736
30.2004
32.0204
34.5734
37.8959
42.016
46.9467
52.6804
59.1832
66.3919
74.2126
82.5224
91.1735
100
100
91.1875
82.5495
74.2512
66.4393
59.2357
52.7326
46.9918
42.0446
37.8963
34.5302
31.9143
30.007
28.7628
28.1369
28.0875
28.5772
29.5724
31.0399
32.9433
35.236
37.8543
40.7078
43.6722
46.5885
49.2805
51.6031
53.5024
54.9978
56.1451
57.0093
57.6507
58.1201
58.458
58.6954
58.855
58.9531
58.9996
58.9996
58.9531
58.855
58.6954
58.458
58.1201
57.6507
57.0093
56.1451
54.9978
53.5024
51.6032
49.2806
46.5886
43.6723
40.7079
37.8545
35.2363
32.9436
31.0403
29.5728
28.5778
28.0881
28.1377
28.7637
30.0079
31.9153
34.5313
37.8974
42.0458
46.9928
52.7336
59.2366
66.4401
74.2518
82.5499
91.1877
100
100
91.2098
82.5933
74.3145
66.5191
59.3277
52.8314
47.0899
42.1327
37.9624
34.5594
31.8877
29.9015
28.55
27.7824
27.5506
27.8104
28.5209
29.6424
31.133
32.9432
35.0114
37.2584
39.5854
41.878
44.0195
45.916
47.5195
48.8263
49.8613
50.6627
51.2714
51.7254
52.0572
52.293
52.4531
52.552
52.5992
52.5992
52.552
52.4531
52.293
52.0572
51.7254
51.2714
50.6627
49.8613
48.8263
47.5195
45.916
44.0196
41.8781
39.5855
37.2584
35.0115
32.9434
31.1332
29.6427
28.5211
27.8107
27.551
27.7829
28.5505
29.902
31.8883
34.56
37.963
42.1333
47.0904
52.8319
59.3282
66.5196
74.3149
82.5936
91.21
100
100
91.2433
82.6591
74.4104
66.6416
59.4721
52.9915
47.2581
42.2994
38.1156
34.6844
31.9666
29.9123
28.4665
27.5733
27.1791
27.2343
27.6927
28.5104
29.6424
31.0399
32.6461
34.3941
36.2067
38.0001
39.6931
41.2203
42.5424
43.6475
44.5445
45.2548
45.805
46.2222
46.5314
46.7536
46.9058
47.0004
47.0456
47.0456