# vtk DataFile Version 2.0
LBE two cylinders
ASCII
DATASET STRUCTURED_POINTS
DIMENSIONS 76 76 1
ASPECT_RATIO 1 1 1
ORIGIN 0 0 0
POINT_DATA 5776
SCALARS temp double 1
LOOKUP_TABLE default
100
100
100
100
100
100
100
100
100
100
100
100
100
100
100
100
100
100
100
100
100
100
100
100
100
100
-300
-300
-300
-300
-300
-300
-300
-300
-300
-300
-300
-300
-300
-300
100
100
100
100
100
100
100
100
100
100
100
100
100
100
100
100
100
100
100
100
100
100
100
100
100
100
-300
-300
-300
-300
-300
-300
-300
-300
-300
-300
100
99.104
98.2254
97.3807
96.5852
95.8523
95.193
94.6162
94.1285
93.7345
93.4371
93.2381
93.1384
93.1384
93.2381
93.4371
93.7345
94.1285
94.6162
95.193
95.8523
96.5852
97.3807
98.2254
99.104
100
-300
-300
-300
-300
-300
-300
-300
-300
-300
-300
-300
-300
-300
-300
100
99.1094
98.236
97.3961
96.6049
95.8755
95.219
94.6441
94.1575
93.7637
93.4658
93.2656
93.1641
93.162
93.2592
93.4557
93.7504
94.1419
94.6272
95.2018
95.8592
96.5904
97.3844
98.2277
99.1052
100
-300
-300
-300
-300
-300
-300
-300
-300
-300
-300
100
98.224
96.4824
94.808
93.2312
91.7783
90.4715
89.3282
88.3614
87.5804
86.9909
86.5964
86.3988
86.3988
86.5964
86.9909
87.5804
88.3614
89.3282
90.4715
91.7783
93.2312
94.808
96.4824
98.224
100
-300
-300
-300
-300
-300
-300
-300
-300
-300
-300
-300
-300
-300
-300
100
98.2358
96.5055
94.8416
93.2741
91.829
90.5282
89.3891
88.4247
87.6441
87.0535
86.6564
86.455
86.4503
86.6425
87.0314
87.6151
88.3907
89.3522
90.4907
91.7933
93.2424
94.816
96.4874
98.2265
100
-300
-300
-300
-300
-300
-300
-300
-300
-300
-300
100
97.375
94.8008
92.326
89.9954
87.848
85.9164
84.2265
82.7976
81.6432
80.7719
80.1888
79.8967
79.8967
80.1888
80.7719
81.6432
82.7976
84.2265
85.9164
87.848
89.9954
92.326
94.8008
97.375
100
-300
-300
-300
-300
-300
-300
-300
-300
-300
-300
-300
-300
-300
-300
100
97.3952
94.8404
92.3837
90.069
87.9349
86.0138
84.3311
82.9062
81.7527
80.8794
80.2918
79.9932
79.9851
80.268
80.8413
81.7028
82.8477
84.2676
85.9493
87.8735
90.0145
92.3395
94.8094
97.3792
100
-300
-300
-300
-300
-300
-300
-300
-300
-300
-300
100
96.5704
93.2073
89.974
86.9291
84.1235
81.5999
79.3922
77.5253
76.0171
74.8787
74.117
73.7354
73.7354
74.117
74.8787
76.0171
77.5253
79.3922
81.5999
84.1235
86.9291
89.974
93.2073
96.5704
100
-300
-300
-300
-300
-300
-300
-300
-300
-300
-300
-300
-300
-300
-300
100
96.6024
93.2701
90.0654
87.0457
84.2612
81.7542
79.5579
77.6974
76.1905
75.049
74.2802
73.8882
73.8752
74.2422
74.9885
76.1112
77.6043
79.4569
81.6517
84.1636
86.9591
89.9952
93.2207
96.577
100
-300
-300
-300
-300
-300
-300
-300
-300
-300
-300
100
95.8216
91.724
87.7848
84.075
80.6568
77.5822
74.8924
72.618
70.7804
69.3934
68.4654
68.0005
68.0005
68.4654
69.3934
70.7804
72.618
74.8924
77.5822
80.6568
84.075
87.7848
91.724
95.8216
100
-300
-300
-300
-300
-300
-300
-300
-300
-300
-300
-300
-300
-300
-300
100
95.8704
91.8198
87.9241
84.2528
80.8669
77.8175
75.1452
72.8805
71.045
69.6533
68.7143
68.2334
68.2136
68.6562
69.5606
70.9235
72.7379
74.9905
77.6605
80.7174
84.1202
87.8167
91.7442
95.8314
100
-300
-300
-300
-300
-300
-300
-300
-300
-300
-300
100
95.1369
90.368
85.7833
81.4656
77.4873
73.909
70.7784
68.1313
65.9926
64.3784
63.2983
62.7572
62.7572
63.2983
64.3784
65.9926
68.1313
70.7784
73.909
77.4873
81.4656
85.7833
90.368
95.1369
100
-300
-300
-300
-300
-300
-300
-300
-300
-300
-300
-300
-300
-300
-300
100
95.2096
90.5106
85.9907
81.7304
77.8003
74.2595
71.155
68.5224
66.387
64.7656
63.6691
63.1041
63.0745
63.5821
64.6267
66.2051
68.309
70.9235
74.0245
77.5766
81.532
85.83
90.3975
95.1512
100
-300
-300
-300
-300
-300
-300
-300
-300
-300
-300
100
94.522
89.1501
83.9857
79.1221
74.6408
70.61
67.0836
64.1019
61.6928
59.8746
58.6579
58.0484
58.0484
58.6579
59.8746
61.6928
64.1019
67.0836
70.61
74.6408
79.1221
83.9857
89.1501
94.522
100
-300
-300
-300
-300
-300
-300
-300
-300
-300
-300
-300
-300
-300
-300
100
94.6283
89.3587
84.2891
79.5095
75.0987
71.1229
67.6348
64.6743
62.2699
60.441
59.2003
58.5556
58.512
59.0722
60.2367
62.0022
64.3603
67.2943
70.7773
74.7697
79.2177
84.0528
89.1924
94.5425
100
-300
-300
-300
-300
-300
-300
-300
-300
-300
-300
100
93.9796
88.0756
82.3999
77.0546
72.1296
67.6997
63.8242
60.5471
57.8995
55.9013
54.5642
53.8943
53.8943
54.5642
55.9013
57.8995
60.5471
63.8242
67.6997
72.1296
77.0546
82.3999
88.0756
93.9796
100
-300
-300
-300
-300
-300
-300
-300
-300
-300
-300
-300
-300
-300
-300
100
94.1324
88.3758
82.8365
77.6123
72.7889
68.4382
64.6179
61.3715
58.7306
56.7169
55.3449
54.624
54.5608
55.1592
56.4207
58.3427
60.9165
64.1245
67.9376
72.3124
77.1898
82.4943
88.1351
94.0082
100
-300
-300
-300
-300
-300
-300
-300
-300
-300
-300
100
93.5094
87.1445
81.0255
75.2629
69.9534
65.1776
60.9994
57.4665
54.6122
52.458
51.0165
50.2943
50.2943
51.0165
52.458
54.6122
57.4665
60.9994
65.1776
69.9534
75.2629
81.0255
87.1445
93.5094
100
-300
-300
-300
-300
-300
-300
-300
-300
-300
-300
-300
-300
-300
-300
100
93.7261
87.57
81.6445
76.0536
70.8882
66.225
62.1253
58.636
55.7911
53.6147
52.1232
51.3281
51.2377
51.8578
53.1913
55.2367
57.9858
61.4205
65.51
70.2079
75.4504
81.1561
87.2265
93.5489
100
-300
-300
-300
-300
-300
-300
-300
-300
-300
-300
100
93.1092
86.3518
79.8555
73.7375
68.1006
63.0303
58.5945
54.8438
51.8136
49.5265
47.9961
47.2295
47.2295
47.9961
49.5265
51.8136
54.8438
58.5945
63.0303
68.1006
73.7375
79.8555
86.3518
93.1092
100
-300
-300
-300
-300
-300
-300
-300
-300
-300
-300
-300
-300
-300
-300
100
93.4117
86.9459
80.72
74.842
69.4068
64.4942
60.1683
56.4786
53.4615
51.143
49.5421
48.6725
48.545
49.1678
50.546
52.6799
55.5623
59.1753
63.4871
68.4488
73.9928
80.0324
86.4625
93.1623
100
-300
-300
-300
-300
-300
-300
-300
-300
-300
-300
100
92.7744
85.6887
78.8768
72.4617
66.5509
61.2343
56.5831
52.6502
49.4728
47.0746
45.4699
44.666
44.666
45.4699
47.0746
49.4728
52.6502
56.5831
61.2343
66.5509
72.4617
78.8768
85.6887
92.7744
100
-300
-300
-300
-300
-300
-300
-300
-300
-300
-300
-300
-300
-300
-300
100
93.1907
86.5064
80.0669
73.9824
68.3499
63.2509
58.7516
54.9029
51.7434
49.3014
47.5983
46.6511
46.4736
47.0774
48.4705
50.6559
53.6284
57.3709
61.8512
67.0187
72.8028
79.112
85.8351
92.8444
100
-300
-300
-300
-300
-300
-300
-300
-300
-300
-300
100
92.4993
85.1438
78.0726
71.4132
65.2775
59.7585
54.9302
50.8477
47.5493
45.0599
43.3941
42.5596
42.5596
43.3941
45.0599
47.5493
50.8477
54.9302
59.7585
65.2775
71.4132
78.0726
85.1438
92.4993
100
-300
-300
-300
-300
-300
-300
-300
-300
-300
-300
-300
-300
-300
-300
100
93.0639
86.2531
79.6874
73.4773
67.72
62.4974
57.8761
53.9083
50.6339
48.084
46.2828
45.2512
45.0072
45.5667
46.9422
49.1401
52.1582
55.9811
60.577
65.8944
71.8601
78.3785
85.3331
92.5894
100
-300
-300
-300
-300
-300
-300
-300
-300
-300
-300
100
92.2772
84.7039
77.4233
70.5668
64.2493
58.567
53.5958
49.3923
45.9963
43.4332
41.7181
40.859
40.859
41.7181
43.4332
45.9963
49.3923
53.5958
58.567
64.2493
70.5668
77.4233
84.7039
92.2772
100
-300
-300
-300
-300
-300
-300
-300
-300
-300
-300
-300
-300
-300
-300
100
93.0322
86.1874
79.5836
73.3291
67.5194
62.2353
57.5424
53.4933
50.1292
47.4834
45.5842
44.457
44.1256
44.6116
45.9333
48.1022
51.1198
54.9738
59.6335
65.0473
71.1399
77.8123
84.9426
92.3902
100
-300
-300
-300
-300
-300
-300
-300
-300
-300
-300
100
92.101
84.3549
76.9082
69.8952
63.4337
57.6217
52.5371
48.2378
44.7643
42.1428
40.3886
39.5098
39.5098
40.3886
42.1428
44.7643
48.2378
52.5371
57.6217
63.4337
69.8952
76.9082
84.3549
92.101
100
-300
-300
-300
-300
-300
-300
-300
-300
-300
-300
-300
-300
-300
-300
100
93.0963
86.3112
79.758
73.541
67.7518
62.4679
57.7532
53.6589
50.2272
47.494
45.492
44.2529
43.8078
44.1862
45.4137
47.5085
50.4778
54.313
58.9858
64.445
70.614
77.3905
84.6478
92.2385
100
-300
-300
-300
-300
-300
-300
-300
-300
-300
-300
100
91.9637
84.0829
76.5067
69.3718
62.7978
56.8849
51.7119
47.3379
43.804
41.1369
39.3522
38.4582
38.4582
39.3522
41.1369
43.804
47.3379
51.7119
56.8849
62.7978
69.3718
76.5067
84.0829
91.9637
100
-300
-300
-300
-300
-300
-300
-300
-300
-300
-300
-300
-300
-300
-300
100
93.2577
86.627
80.2145
74.1179
68.4229
63.2019
58.5145
54.4099
50.9301
48.1137
45.999
44.6255
44.0341
44.2645
45.3522
47.3241
50.1946
53.9601
58.5959
64.052
70.251
77.0878
84.4307
92.1252
100
-300
-300
-300
-300
-300
-300
-300
-300
-300
-300
100
91.8584
83.8745
76.1991
68.9708
62.3108
56.3204
51.0797
46.6485
43.0684
40.3664
38.5583
37.6526
37.6526
38.5583
40.3664
43.0684
46.6484
51.0797
56.3204
62.3108
68.9708
76.1991
83.8745
91.8584
100
-300
-300
-300
-300
-300
-300
-300
-300
-300
-300
-300
-300
-300
-300
100
93.5178
87.1379
80.9579
75.0667
69.5415
64.4473
59.8375
55.7569
52.2463
49.3467
47.1029
45.5651
44.7869
44.8216
45.7175
47.5127
50.2304
53.874
58.4229
63.8295
70.0164
76.8759
84.2711
92.0396
100
-300
-300
-300
-300
-300
-300
-300
-300
-300
-300
100
91.7792
83.7176
75.9675
68.6689
61.9441
55.8955
50.6038
46.1295
42.5145
39.7863
37.9607
37.0461
37.0461
37.9607
39.7863
42.5145
46.1294
50.6038
55.8954
61.9441
68.6689
75.9675
83.7176
91.7792
100
-300
-300
-300
-300
-300
-300
-300
-300
-300
-300
-300
-300
-300
-300
100
93.8781
87.8472
81.9936
76.3952
71.1184
66.218
61.7382
57.717
54.1913
51.2038
48.8074
47.0659
46.0506
45.8328
46.4774
48.0363
50.5436
54.0107
58.4227
63.7351
69.8717
76.7226
84.1456
91.9695
100
-300
-300
-300
-300
-300
-300
-300
-300
-300
-300
100
91.7206
83.6015
75.7962
68.4455
61.6728
55.581
50.2517
45.7454
42.1048
39.3571
37.5185
36.5974
36.5974
37.5185
39.3571
42.1048
45.7454
50.2517
55.581
61.6728
68.4455
75.7962
83.6015
91.7206
100
-300
-300
-300
-300
-300
-300
-300
-300
-300
-300
-300
-300
-300
-300
100
94.3396
88.7571
83.326
78.1109
73.1652
68.5303
64.2379
60.3143
56.7892
53.7045
51.1222
49.1256
47.8103
47.2722
47.5972
48.8539
51.0888
54.3224
58.5466
63.7214
69.7727
76.5901
84.0264
91.8998
100
-300
-300
-300
-300
-300
-300
-300
-300
-300
-300
100
91.678
83.5171
75.6716
68.283
61.4755
55.3524
49.9956
45.4662
41.8068
39.045
37.1969
36.2711
36.2711
37.1969
39.0449
41.8068
45.4662
49.9956
55.3524
61.4755
68.283
75.6716
83.5171
91.678
100
-300
-300
-300
-300
-300
-300
-300
-300
-300
-300
-300
-300
-300
-300
100
94.902
89.8679
84.9567
80.2187
75.6918
71.4015
67.3617
63.5814
60.0752
56.8788
54.0645
51.744
50.0492
49.1096
49.037
49.9191
51.8153
54.756
58.7403
63.7341
69.6677
76.4324
83.8779
91.811
100
-300
-300
-300
-300
-300
-300
-300
-300
-300
-300
100
91.6475
83.4567
75.5825
68.1669
61.3344
55.1889
49.8125
45.2665
41.5938
38.8218
36.967
36.0378
36.0378
36.967
38.8218
41.5938
45.2665
49.8125
55.1889
61.3344
68.1669
75.5825
83.4567
91.6475
100
-300
-300
-300
-300
-300
-300
-300
-300
-300
-300
-300
-300
-300
-300
100
95.563
91.1754
86.8819
82.7173
78.7033
74.8464
71.1381
67.5604
64.0999
60.7731
57.66
54.9205
52.7438
51.3051
50.7474
51.1771
52.6658
55.252
58.9423
63.7102
69.4937
76.1908
83.6525
91.6755
100
-300
-300
-300
-300
-300
-300
-300
-300
-300
-300
100
91.6261
83.4143
75.5199
68.0853
61.2353
55.074
49.6839
45.1263
41.4441
38.665
36.8055
35.8739
35.8739
36.8054
38.665
41.444
45.1262
49.6838
55.074
61.2353
68.0853
75.5198
83.4143
91.6261
100
-300
-300
-300
-300
-300
-300
-300
-300
-300
-300
-300
-300
-300
-300
100
96.317
92.6698
89.089
85.5952
82.1943
78.8728
75.5954
72.3058
68.9397
65.4624
61.9466
58.6489
55.8554
53.8026
52.6647
52.5625
53.5744
55.744
59.0841
63.5771
69.1739
75.7877
83.2819
91.4512
100
-300
-300
-300
-300
-300
-300
-300
-300
-300
-300
100
91.6113
83.385
75.4766
68.0289
61.1668
54.9947
49.595
45.0293
41.3406
38.5567
36.6938
35.7606
35.7606
36.6938
38.5566
41.3406
45.0292
49.5949
54.9946
61.1667
68.0288
75.4766
83.3849
91.6113
100
-300
-300
-300
-300
-300
-300
-300
-300
-300
-300
-300
-300
-300
-300
100
97.1546
94.3328
91.5534
88.8253
86.1415
83.4721
80.7551
77.8862
74.7158
71.0836
66.9785
62.9035
59.3147
56.5178
54.7049
53.9967
54.4679
56.1609
59.0918
63.2533
68.6149
75.118
82.6619
91.0656
100
-300
-300
-300
-300
-300
-300
-300
-300
-300
-300
100
91.6012
83.3651
75.4472
67.9906
61.1203
54.9408
49.5346
44.9635
41.2704
38.4831
36.618
35.6837
35.6836
36.6179
38.483
41.2702
44.9633
49.5344
54.9406
61.1201
67.9905
75.4471
83.365
91.6012
100
-300
-300
-300
-300
-300
-300
-300
-300
-300
-300
-300
-300
-300
-300
100
98.0612
96.1362
94.2347
92.3582
90.4935
88.604
86.6133
84.3762
81.628
77.929
72.8205
67.6027
62.9937
59.3248
56.7593
55.3887
55.2684
56.4312
58.8923
62.6534
67.7069
74.0388
81.6231
90.377
100
-300
-300
-300
-300
-300
-300
-300
-300
-300
-300
100
91.5945
83.3518
75.4276
67.965
61.0892
54.9047
49.4942
44.9194
41.2234
38.4339
36.5673
35.6322
35.6321
36.5672
38.4337
41.2231
44.9192
49.4939
54.9044
61.0889
67.9647
75.4274
83.3516
91.5944
100
-300
-300
-300
-300
-300
-300
-300
-300
-300
-300
-300
-300
-300
-300
100
99.0175
98.0413
97.075
96.1177
95.1591
94.1726
93.0992
91.8078
89.9816
86.7581
79.4658
72.5103
66.6589
62.0424
58.6951
56.6409
55.9013
56.4924
58.4237
61.701
66.3359
72.3645
79.8807
89.064
100
-300
-300
-300
-300
-300
-300
-300
-300
-300
-300
100
91.5901
83.343
75.4147
67.9482
61.0688
54.881
49.4677
44.8905
41.1925
38.4015
36.5339
35.5983
35.5982
36.5337
38.4012
41.1921
44.89
49.4672
54.8805
61.0682
67.9477
75.4143
83.3427
91.59
100
-300
-300
-300
-300
-300
-300
-300
-300
-300
-300
-300
-300
-300
-300
100
100
100
100
100
100
100
100
100
100
100
86.2984
77.009
69.9277
64.4424
60.3711
57.6625
56.3062
56.3024
57.6512
60.3527
64.4179
69.8989
76.979
86.2744
100
100
100
100
100
100
100
100
100
100
100
100
91.5873
83.3374
75.4064
67.9373
61.0556
54.8657
49.4505
44.8717
41.1725
38.3805
36.5122
35.5762
35.5761
36.5119
38.3799
41.1717
44.8709
49.4496
54.8648
61.0546
67.9365
75.4057
83.3369
91.587
100
-300
-300
-300
-300
-300
-300
-300
-300
-300
-300
-300
-300
-300
-300
-300
-300
-300
-300
-300
-300
-300
-300
-300
-300
100
89.0671
79.8813
72.3587
66.3217
61.6775
58.3907
56.4504
55.8508
56.5828
58.6305
61.973
66.5867
72.4384
79.3986
86.7006
89.9292
91.7595
93.0552
94.1335
95.1254
96.09
97.0538
98.0269
99.0103
100
100
91.5854
83.3338
75.401
67.9304
61.0471
54.8559
49.4395
44.8597
41.1596
38.3669
36.4982
35.562
35.5618
36.4976
38.366
41.1584
44.8583
49.438
54.8543
61.0456
67.929
75.3999
83.333
91.585
100
-300
-300
-300
-300
-300
-300
-300
-300
-300
-300
-300
-300
-300
-300
-300
-300
-300
-300
-300
-300
-300
-300
-300
-300
100
90.3658
81.5988
74.0002
67.6533
62.585
58.8099
56.3361
55.1621
55.2729
56.6362
59.1965
62.8629
67.4724
72.6941
77.8094
81.5155
84.2717
86.5178
88.519
90.4203
92.2979
94.1885
96.1049
98.0454
100
100
91.5843
83.3315
75.3977
67.926
61.0418
54.8497
49.4325
44.8521
41.1514
38.3582
36.4891
35.5527
35.5523
36.4882
38.3567
41.1494
44.8497
49.43
54.847
61.0392
67.9237
75.3958
83.3302
91.5836
100
-300
-300
-300
-300
-300
-300
-300
-300
-300
-300
-300
-300
-300
-300
-300
-300
-300
-300
-300
-300
-300
-300
-300
-300
100
91.0403
82.6111
75.0418
68.514
63.1292
58.9465
55.9967
54.2876
53.8032
54.5015
56.3077
59.1015
62.6908
66.77
70.8828
74.5252
77.7082
80.5923
83.3269
86.0164
88.7223
91.4744
94.2793
97.1276
100
100
91.5836
83.3301
75.3956
67.9232
61.0384
54.8458
49.4281
44.8471
41.146
38.3525
36.483
35.5463
35.5458
36.4815
38.35
41.1427
44.8432
49.4238
54.8414
61.0342
67.9194
75.3925
83.3279
91.5824
100
-300
-300
-300
-300
-300
-300
-300
-300
-300
-300
-300
-300
-300
-300
-300
-300
-300
-300
-300
-300
-300
-300
-300
-300
100
91.4088
83.1976
75.6627
69.0104
63.3779
58.8527
55.4845
53.291
52.2599
52.3477
53.4762
55.5245
58.3187
61.6221
65.1483
68.6406
72.0261
75.3393
78.6444
81.9973
85.4331
88.9647
92.5856
96.2745
100
100
91.5831
83.3292
75.3943
67.9215
61.0362
54.8432
49.4251
44.8437
41.1422
38.3483
36.4786
35.5415
35.5406
36.4761
38.3444
41.137
44.8375
49.4182
54.8361
61.0294
67.9153
75.3892
83.3256
91.5813
100
-300
-300
-300
-300
-300
-300
-300
-300
-300
-300
-300
-300
-300
-300
-300
-300
-300
-300
-300
-300
-300
-300
-300
-300
100
91.6099
83.5224
75.9988
69.2433
63.4061
58.5901
54.8579
52.2365
50.7196
50.2689
50.8129
52.2451
54.4227
57.1703
60.2987
63.6477
67.1372
70.7504
74.5005
78.405
82.4718
86.6936
91.0479
95.4986
100
100
91.5828
83.3286
75.3934
67.9203
61.0347
54.8413
49.4229
44.8411
41.1392
38.3449
36.4747
35.5371
35.5357
36.4707
38.3386
41.1308
44.8312
49.4119
54.83
61.0238
67.9104
75.3853
83.3229
91.5799
100
-300
-300
-300
-300
-300
-300
-300
-300
-300
-300
-300
-300
-300
-300
-300
-300
-300
-300
-300
-300
-300
-300
-300
-300
100
91.7132
83.6842
76.1468
69.2957
63.2829
58.2182
54.1725
51.1802
49.2427
48.3301
48.3827
49.3131
51.0092
53.3416
56.1782
59.4072
62.9561
66.7888
70.8903
75.251
79.8558
84.6785
89.6794
94.8068
100
100
91.5826
83.3282
75.3927
67.9193
61.0335
54.8398
49.4209
44.8388
41.1363
38.3414
36.4705
35.5322
35.5301
36.4643
38.3315
41.1232
44.8231
49.4037
54.8219
61.0162
67.9038
75.3799
83.3191
91.5779
100
-300
-300
-300
-300
-300
-300
-300
-300
-300
-300
-300
-300
-300
-300
-300
-300
-300
-300
-300
-300
-300
-300
-300
-300
100
91.7573
83.7443
76.1742
69.2313
63.0651
57.7877
53.4744
50.1663
47.8721
46.5713
46.2177
46.7426
48.06
50.0739
52.6885
55.8205
59.4075
63.407
67.789
72.5258
77.5847
82.9225
88.4838
94.2016
100
100
91.5824
83.3278
75.3921
67.9185
61.0323
54.8382
49.4189
44.8361
41.133
38.3372
36.4654
35.526
35.5227
36.4558
38.3218
41.1125
44.8118
49.392
54.8104
61.0054
67.8942
75.3721
83.3136
91.5751
100
-300
-300
-300
-300
-300
-300
-300
-300
-300
-300
-300
-300
-300
-300
-300
-300
-300
-300
-300
-300
-300
-300
-300
-300
100
91.7654
83.7418
76.1273
69.0971
62.7965
57.3377
52.7989
49.2259
46.6342
45.0128
44.3277
44.5269
45.5455
47.3118
49.7546
52.8096
56.4236
60.5533
65.1607
70.2066
75.6448
81.4182
87.4574
93.6813
100
100
91.5822
83.3274
75.3914
67.9175
61.031
54.8363
49.4164
44.8328
41.1286
38.3317
36.4584
35.5174
35.5125
36.4438
38.3081
41.0973
44.7954
49.3751
54.7936
60.9895
67.88
75.3606
83.3055
91.5709
100
-300
-300
-300
-300
-300
-300
-300
-300
-300
-300
-300
-300
-300
-300
-300
-300
-300
-300
-300
-300
-300
-300
-300
-300
100
91.7521
83.7021
76.0375
68.9257
62.5082
56.8961
52.1694
48.3774
45.5416
43.6591
42.7069
42.6466
43.4298
45.0029
47.3119
50.3065
53.9412
58.1741
62.9632
68.2617
74.0134
80.1503
86.5908
93.2416
100
100
91.582
83.3269
75.3906
67.9163
61.0292
54.8339
49.4131
44.8283
41.1227
38.324
36.4487
35.5054
35.498
36.4266
38.2884
41.0754
44.7717
49.3504
54.7689
60.9661
67.8592
75.3436
83.2934
91.5646
100
-300
-300
-300
-300
-300
-300
-300
-300
-300
-300
-300
-300
-300
-300
-300
-300
-300
-300
-300
-300
-300
-300
-300
-300
100
91.7262
83.6412
75.9247
68.7385
62.2202
56.48
51.5987
47.6284
44.5955
42.5037
41.3389
41.0738
41.6727
43.0954
45.3008
48.2488
51.9004
56.2157
61.1509
66.6543
72.6625
79.0984
85.871
92.8761
100
100
91.5817
83.3263
75.3896
67.9147
61.0269
54.8307
49.4085
44.8222
41.1146
38.3134
36.4352
35.4886
35.4774
36.4023
38.2603
41.0439
44.7376
49.3147
54.7331
60.9319
67.8287
75.3186
83.2756
91.5554
100
-300
-300
-300
-300
-300
-300
-300
-300
-300
-300
-300
-300
-300
-300
-300
-300
-300
-300
-300
-300
-300
-300
-300
-300
100
91.6929
83.5685
75.8009
68.5474
61.9433
56.0973
51.0906
46.9776
43.7881
41.5312
40.1999
39.7754
40.2316
41.5385
43.6646
46.5774
50.2433
54.6246
59.6769
65.345
71.5605
78.2394
85.2825
92.5771
100
100
91.5814
83.3255
75.3882
67.9126
61.0239
54.8263
49.4024
44.8139
41.1034
38.2988
36.4165
35.4651
35.4487
36.3681
38.2207
40.9992
44.6888
49.2635
54.6815
60.8825
67.7843
75.2822
83.2497
91.5419
100
-300
-300
-300
-300
-300
-300
-300
-300
-300
-300
-300
-300
-300
-300
-300
-300
-300
-300
-300
-300
-300
-300
-300
-300
100
91.6549
83.4884
75.6711
68.3575
61.6805
55.7481
50.6415
46.4163
43.105
40.7207
39.2616
38.7154
39.0631
40.2825
42.349
45.2363
48.9148
53.3491
58.4946
64.294
70.675
77.5485
84.8089
92.3363
100
100
91.5809
83.3244
75.3864
67.9099
61.0198
54.8204
49.3942
44.8026
41.0883
38.2789
36.3908
35.4329
35.4091
36.3207
38.1653
40.9365
44.6202
49.1909
54.608
60.8118
67.7205
75.2296
83.2122
91.5223
100
-300
-300
-300
-300
-300
-300
-300
-300
-300
-300
-300
-300
-300
-300
-300
-300
-300
-300
-300
-300
-300
-300
-300
-300
100
91.6124
83.4014
75.5355
68.1674
61.4288
55.4265
50.2418
45.9307
42.5274
40.0476
38.4933
37.8568
38.1245
39.2796
41.303
44.173
47.8632
52.3401
57.5593
63.4623
69.974
77.0013
84.4336
92.1455
100
100
91.5802
83.323
75.3841
67.9062
61.0144
54.8127
49.3833
44.7876
41.0681
38.2522
36.3564
35.3893
35.3553
36.2558
38.0893
40.8499
44.5247
49.0893
54.5045
60.7116
67.6297
75.1543
83.1582
91.4941
100
-300
-300
-300
-300
-300
-300
-300
-300
-300
-300
-300
-300
-300
-300
-300
-300
-300
-300
-300
-300
-300
-300
-300
-300
100
91.5641
83.3046
75.3895
67.9708
61.1795
55.1214
49.8772
45.5029
42.0332
39.4852
37.8633
37.163
37.3744
38.4849
40.4791
43.3387
47.0404
51.5519
56.8293
62.8134
69.427
76.5742
84.1407
91.9965
100
100
91.5794
83.3212
75.3811
67.9015
61.0074
54.8026
49.3692
44.7681
41.0416
38.2171
36.3108
35.3313
35.2834
36.1686
37.9864
40.7319
44.3936
48.9489
54.3604
60.5711
67.5014
75.0474
83.0813
91.4538
100
-300
-300
-300
-300
-300
-300
-300
-300
-300
-300
-300
-300
-300
-300
-300
-300
-300
-300
-300
-300
-300
-300
-300
-300
100
91.5069
83.192
75.2244
67.7567
60.9193
54.8173
49.5298
45.1121
41.5983
39.006
37.3404
36.599
36.7745
37.8569
39.8338
42.6897
46.403
50.9431
56.2666
62.3137
69.0061
76.2457
83.9154
91.8819
100
100
91.5783
83.3189
75.3773
67.8956
60.9986
54.7899
49.3511
44.743
41.0075
38.1717
36.2514
35.2555
35.1887
36.0532
37.8492
40.5734
44.2161
48.7573
54.1619
60.3759
67.3217
74.8965
82.972
91.3963
100
-300
-300
-300
-300
-300
-300
-300
-300
-300
-300
-300
-300
-300
-300
-300
-300
-300
-300
-300
-300
-300
-300
-300
-300
100
91.4358
83.054
75.0271
67.5092
60.6305
54.4945
49.1785
44.7355
41.198
38.5826
36.8947
36.1323
36.2895
37.3584
39.3287
42.1867
45.9127
50.4772
55.8375
61.9336
68.6864
75.9964
83.7445
91.795
100
100
91.5771
83.3162
75.3726
67.8883
60.9877
54.774
49.3285
44.7115
40.9644
38.114
36.1757
35.1582
35.0663
35.9028
37.6691
40.3636
43.9791
48.4988
53.8915
60.1071
67.0717
74.6846
82.8173
91.3145
100
-300
-300
-300
-300
-300
-300
-300
-300
-300
-300
-300
-300
-300
-300
-300
-300
-300
-300
-300
-300
-300
-300
-300
-300
100
91.3432
82.8768
74.7791
67.2069
60.29
54.1295
48.7993
44.3486
40.807
38.1888
36.4981
35.733
35.8882
36.9567
38.93
41.796
45.5363
50.1226
55.5128
61.6472
68.4463
75.8095
83.6165
91.73
100
100
91.5755
83.3129
75.3669
67.8795
60.9744
54.7546
49.3008
44.6726
40.911
38.042
36.0807
35.0353
34.9108
35.7104
37.4367
40.0903
43.6671
48.1546
53.5271
59.7402
66.7259
74.3878
82.5983
91.1978
100
-300
-300
-300
-300
-300
-300
-300
-300
-300
-300
-300
-300
-300
-300
-300
-300
-300
-300
-300
-300
-300
-300
-300
-300
100
91.2183
82.6407
74.455
66.8216
59.8693
53.6946
48.3655
43.9258
40.4001
37.7993
36.1252
35.3749
35.5432
36.6238
38.6092
41.4889
45.2457
49.8526
55.2681
61.4329
68.2674
75.6707
83.5217
91.6819
100
100
91.5738
83.309
75.3603
67.8691
60.9587
54.7314
49.2675
44.6257
40.8462
37.9542
35.964
34.8834
34.717
35.4686
37.1419
39.74
43.2625
47.7025
53.0413
59.2433
66.2499
73.9726
82.2873
91.0304
100
-300
-300
-300
-300
-300
-300
-300
-300
-300
-300
-300
-300
-300
-300
-300
-300
-300
-300
-300
-300
-300
-300
-300
-300
100
91.0447
82.317
74.0194
66.3165
59.333
53.1573
47.8482
43.4409
39.9532
37.3911
35.7533
35.0353
35.2314
36.336
38.3426
41.2419
45.0181
49.6454
55.0831
61.2727
68.1348
75.5684
83.4521
91.6466
100
100
91.5718
83.3046
75.3528
67.8571
60.9405
54.7044
49.2284
44.5703
40.7692
37.8492
35.8235
34.6992
34.4802
35.1705
36.775
39.299
42.7465
47.1171
52.4015
58.5763
65.5972
73.3905
81.8424
90.7869
100
-300
-300
-300
-300
-300
-300
-300
-300
-300
-300
-300
-300
-300
-300
-300
-300
-300
-300
-300
-300
-300
-300
-300
-300
100
90.7968
81.8628
73.4227
65.6428
58.6375
52.4805
47.2162
42.8675
39.4434
36.9436
35.363
34.6952
34.9341
36.0746
38.1113
41.0361
44.835
49.4834
54.9417
61.1524
68.0364
75.4933
83.4012
91.621
100
100
91.5696
83.2999
75.3445
67.8438
60.92
54.6739
49.1838
44.5065
40.6798
37.7264
35.6582
34.4806
34.197
34.8107
36.3273
38.7543
42.1001
46.3714
51.5702
57.6891
64.7055
72.5714
81.1969
90.4244
100
-300
-300
-300
-300
-300
-300
-300
-300
-300
-300
-300
-300
-300
-300
-300
-300
-300
-300
-300
-300
-300
-300
-300
-300
100
90.4311
81.2107
72.5931
64.7362
57.7302
51.6231
46.4377
42.1809
38.8507
36.4396
34.9388
34.34
34.6369
35.8251
37.9006
40.8572
44.6824
49.3532
54.8316
61.0609
67.9631
75.4379
83.3641
91.6023
100
100
91.5674
83.295
75.3358
67.8297
60.8979
54.6403
49.1342
44.4349
40.5787
37.5864
35.4681
34.2273
33.8658
34.3859
35.7931
38.096
41.3068
45.4392
50.5072
56.523
63.4932
71.412
80.2411
89.8639
100
-300
-300
-300
-300
-300
-300
-300
-300
-300
-300
-300
-300
-300
-300
-300
-300
-300
-300
-300
-300
-300
-300
-300
-300
100
89.8683
80.2503
71.4264
63.5135
56.5501
50.5421
45.4828
41.3599
38.1593
35.8668
34.47
33.9596
34.3297
35.5774
37.7005
40.6949
44.5502
49.2452
54.7436
60.9901
67.9077
75.397
83.337
91.5888
100
100
91.5653
83.2903
75.3273
67.8153
60.875
54.6049
49.0811
44.3572
40.4676
37.4311
35.2551
33.9411
33.4881
33.8967
35.1708
37.3192
40.3558
44.2997
49.1755
55.0147
61.8589
69.7627
78.7863
88.9422
100
-300
-300
-300
-300
-300
-300
-300
-300
-300
-300
-300
-300
-300
-300
-300
-300
-300
-300
-300
-300
-300
-300
-300
-300
100
88.9451
78.7922
69.7721
61.8721
55.0323
49.1982
44.328
40.3902
37.3601
35.2184
33.951
33.5487
34.0071
35.3256
37.5046
40.5426
44.4315
49.1526
54.6716
60.9345
67.8657
75.3667
83.3174
91.5792
100
100
91.5637
83.2863
75.3197
67.8021
60.8528
54.5695
49.0266
44.2759
40.3496
37.2638
35.0234
33.6265
33.069
33.3482
34.4653
36.4271
39.2468
42.9448
47.5511
53.1103
59.6931
67.42
76.5021
87.2777
100
-300
-300
-300
-300
-300
-300
-300
-300
-300
-300
-300
-300
-300
-300
-300
-300
-300
-300
-300
-300
-300
-300
-300
-300
100
87.2796
76.5059
67.426
59.7016
53.1216
47.5656
42.9628
39.2687
36.4532
34.4956
33.3827
33.1074
33.6684
35.0682
37.3106
40.3972
44.3231
49.072
54.6119
60.8906
67.8341
75.3448
83.3036
91.5725
100
100
91.5629
83.284
75.3145
67.7915
60.8335
54.5367
48.9738
44.1947
40.2291
37.0902
34.7794
33.2912
32.6175
32.7512
33.6891
35.4337
37.994
41.3866
45.6381
50.791
56.9182
64.1623
72.8459
83.842
100
100
100
100
100
100
100
100
100
100
100
100
100
100
100
100
100
100
100
100
100
100
100
100
100
100
83.8432
72.8484
64.1661
56.9236
50.7981
45.6472
41.3979
38.0078
35.4501
33.7081
32.7728
32.6416
33.3175
34.8075
37.1194
40.2589
44.2243
49.0023
54.5632
60.8572
67.8115
75.3302
83.2948
91.5684
100
100
91.5635
83.2845
75.3133
67.7861
60.8202
54.5103
48.9275
44.1192
40.1127
36.9179
34.5325
32.9467
32.1475
32.1226
32.863
34.3647
36.6292
39.6642
43.4835
48.1092
53.5747
59.93
67.2346
75.4586
83.8419
87.2775
88.9418
89.8631
90.4232
90.7849
91.0273
91.1929
91.3068
91.3845
91.4358
91.4669
91.4816
91.4816
91.4669
91.4358
91.3845
91.3068
91.1929
91.0273
90.7849
90.4232
89.8631
88.9418
87.2776
83.8421
75.4595
67.2362
59.9324
53.5781
48.1136
43.4891
39.6712
36.6377
34.3748
32.8748
32.1359
32.1623
32.9629
34.5498
36.9359
40.1311
44.1375
48.945
54.5267
60.8348
67.7984
75.323
83.2912
91.5669
100
100
91.5664
83.2895
75.3186
67.7891
60.8169
54.4954
48.8935
44.0566
40.0089
36.7571
34.2949
32.6077
31.6773
31.4853
32.0158
33.2569
35.2008
37.8427
41.1795
45.2061
49.9086
55.2491
61.1213
67.2345
72.8456
76.5016
78.7854
80.2397
81.1946
81.8386
82.2813
82.5888
82.8024
82.9491
83.0464
83.1056
83.1337
83.1337
83.1056
83.0464
82.9491
82.8024
82.5888
82.2813
81.8386
81.1946
80.2397
78.7855
76.5017
72.8459
67.2351
61.1223
55.2506
49.9107
45.2087
41.183
37.847
35.206
33.2631
32.0229
31.4934
31.6863
32.6175
34.3054
36.7681
40.0201
44.0677
48.9041
54.5053
60.8258
67.7966
75.3245
83.2935
91.5685
100
100
91.5727
83.3012
75.3339
67.805
60.8294
54.4987
48.8799
44.0162
39.9287
36.6207
34.0818
32.2926
31.2291
30.8668
31.1824
32.1555
33.7681
36.0033
38.8411
42.2534
46.1933
50.5768
55.249
59.9298
64.1619
67.4193
69.7615
71.41
72.5681
73.3852
73.964
74.3744
74.6636
74.8642
74.9981
75.08
75.1189
75.1189
75.08
74.9981
74.8642
74.6636
74.3744
73.964
73.3852
72.5681
71.41
69.7615
67.4194
64.1621
59.9302
55.2497
50.5777
46.1945
42.255
38.8432
36.0058
33.7712
32.1591
31.1866
30.8716
31.2345
32.2984
34.0881
36.6273
39.9354
44.0228
48.8863
54.5046
60.8347
67.8095
75.3374
83.3036
91.5739
100
100
91.5838
83.3225
75.3635
67.8398
60.8649
54.529
48.8971
44.0099
39.8858
36.5247
33.9118
32.0231
30.8292
30.2989
30.402
31.1098
32.3952
34.2302
36.5822
39.4078
42.6438
46.1933
49.9085
53.5745
56.9177
59.6922
61.8574
63.4907
64.7015
65.5906
66.2393
66.7092
67.0458
67.2818
67.4408
67.5386
67.5851
67.5851
67.5386
67.4408
67.2818
67.0458
66.7092
66.2393
65.5906
64.7015
63.4908
61.8574
59.6923
56.9179
53.5747
49.9089
46.1938
42.6445
39.4088
36.5834
34.2317
32.3971
31.112
30.4045
30.3018
30.8323
32.0266
33.9155
36.5285
39.8898
44.0138
48.9008
54.5325
60.8681
67.8424
75.3655
83.3239
91.5845
100
100
91.6018
83.3574
75.4132
67.901
60.933
54.5976
48.958
44.0527
39.8972
36.4881
33.8067
31.8244
30.5066
29.8162
29.7162
30.1709
31.1451
32.6027
34.5024
36.7933
39.4078
42.2533
45.2059
48.1089
50.7904
53.1093
55.013
56.5201
57.6845
58.5688
59.2314
59.7213
60.0778
60.3309
60.5029
60.6093
60.6601
60.6601
60.6093
60.5029
60.3309
60.0778
59.7213
59.2314
58.5688
57.6845
56.5201
55.013
53.1093
50.7905
48.109
45.2061
42.2537
39.4082
36.7939
34.5031
32.6035
31.1462
30.1721
29.7177
29.8178
30.5084
31.8264
33.8088
36.4903
39.8995
44.0549
48.9602
54.5996
60.9348
67.9026
75.4144
83.3582
91.6022
100
100
91.6291
83.4109
75.4905
67.9986
61.0456
54.7187
49.0791
44.163
39.9835
36.5339
33.7921
31.7252
30.2937
29.4555
29.1677
29.3885
30.0767
31.1903
32.6833
34.5024
36.5821
38.841
41.1793
43.4831
45.6375
47.55
49.1737
50.5042
51.5652
52.3935
53.0286
53.507
53.8604
54.1143
54.2883
54.3966
54.4485
54.4485
54.3966
54.2883
54.1143
53.8604
53.507
53.0286
52.3935
51.5652
50.5042
49.1737
47.5501
45.6375
43.4832
41.1795
38.8412
36.5824
34.5027
32.6837
31.1908
30.0774
29.3892
29.1685
29.4564
30.2948
31.7263
33.7933
36.5352
39.9848
44.1643
49.0803
54.7198
61.0467
67.9994
75.4912
83.4114
91.6294
100
100
91.669
83.4893
75.6048
68.1446
61.2179
54.91
49.2805
44.3635
40.1696
36.6894
33.8977
31.7577
30.2261
29.256
28.7999
28.8113
29.2443
30.0533
31.1903
32.6026
34.2302
36.0031
37.8425
39.6638
41.3859
42.9437
44.2979
45.4361
46.3664
47.109
47.6896
48.1343