# vtk DataFile Version 2.0
LBE two cylinders
ASCII
DATASET STRUCTURED_POINTS
DIMENSIONS 76 76 1
ASPECT_RATIO 1 1 1
ORIGIN 0 0 0
POINT_DATA 5776
SCALARS temp double 1
LOOKUP_TABLE default
100
100
100
100
100
100
100
100
100
100
100
100
100
100
100
100
100
100
100
100
100
100
100
100
100
100
-300
-300
-300
-300
-300
-300
-300
-300
-300
-300
-300
-300
-300
-300
100
100
100
100
100
100
100
100
100
100
100
100
100
100
100
100
100
100
100
100
100
100
100
100
100
100
-300
-300
-300
-300
-300
-300
-300
-300
-300
-300
100
98.0615
96.1969
94.4717
92.9363
91.6217
90.5391
89.6821
89.031
88.5588
88.2365
88.0379
87.9438
87.9438
88.0379
88.2365
88.5588
89.031
89.6821
90.5391
91.6217
92.9363
94.4717
96.1969
98.0615
100
-300
-300
-300
-300
-300
-300
-300
-300
-300
-300
-300
-300
-300
-300
100
98.0615
96.1969
94.4718
92.9364
91.6218
90.5393
89.6822
89.0312
88.559
88.2366
88.0381
87.9439
87.9439
88.038
88.2366
88.5589
89.0311
89.6821
90.5391
91.6217
92.9363
94.4717
96.1969
98.0615
100
-300
-300
-300
-300
-300
-300
-300
-300
-300
-300
100
96.1968
92.5387
89.1541
86.1418
83.5628
81.4389
79.7576
78.4804
77.5541
76.9217
76.5322
76.3475
76.3475
76.5322
76.9217
77.5541
78.4804
79.7576
81.4389
83.5628
86.1418
89.1541
92.5387
96.1968
100
-300
-300
-300
-300
-300
-300
-300
-300
-300
-300
-300
-300
-300
-300
100
96.1969
92.5389
89.1544
86.1422
83.5632
81.4394
79.7581
78.4809
77.5545
76.9221
76.5326
76.3478
76.3478
76.5324
76.9219
77.5542
78.4805
79.7577
81.439
83.5628
86.1418
89.1541
92.5387
96.1968
100
-300
-300
-300
-300
-300
-300
-300
-300
-300
-300
100
94.4715
89.1539
84.2339
79.8552
76.1063
73.0191
70.5752
68.7187
67.3723
66.4532
65.8871
65.6186
65.6186
65.8871
66.4532
67.3723
68.7187
70.5752
73.0191
76.1063
79.8552
84.2339
89.1539
94.4715
100
-300
-300
-300
-300
-300
-300
-300
-300
-300
-300
-300
-300
-300
-300
100
94.4718
89.1544
84.2347
79.8561
76.1074
73.0203
70.5764
68.7199
67.3734
66.4542
65.8879
65.6194
65.6192
65.8875
66.4536
67.3726
68.7189
70.5754
73.0192
76.1064
79.8552
84.234
89.1539
94.4715
100
-300
-300
-300
-300
-300
-300
-300
-300
-300
-300
100
92.9358
86.141
79.8544
74.2594
69.4693
65.5248
62.4022
60.0302
58.31
57.1357
56.4124
56.0695
56.0695
56.4124
57.1357
58.31
60.0302
62.4022
65.5248
69.4693
74.2594
79.8544
86.141
92.9358
100
-300
-300
-300
-300
-300
-300
-300
-300
-300
-300
-300
-300
-300
-300
100
92.9364
86.1421
79.856
74.2615
69.4717
65.5273
62.4048
60.0328
58.3124
57.1379
56.4144
56.0711
56.0709
56.4135
57.1365
58.3106
60.0307
62.4025
65.5249
69.4694
74.2595
79.8544
86.141
92.9358
100
-300
-300
-300
-300
-300
-300
-300
-300
-300
-300
100
91.6205
83.5605
76.1036
69.467
63.7852
59.1065
55.4029
52.5896
50.5493
49.1566
48.2988
47.8921
47.8921
48.2988
49.1566
50.5493
52.5896
55.4029
59.1065
63.7852
69.467
76.1036
83.5605
91.6205
100
-300
-300
-300
-300
-300
-300
-300
-300
-300
-300
-300
-300
-300
-300
100
91.6217
83.5631
76.1071
69.4715
63.7904
59.1121
55.4086
52.5952
50.5546
49.1615
48.3031
47.8958
47.8952
48.3012
49.1585
50.5507
52.5905
55.4035
59.1069
63.7855
69.4671
76.1036
83.5606
91.6205
100
-300
-300
-300
-300
-300
-300
-300
-300
-300
-300
100
90.5363
81.4337
73.0121
65.5171
59.1005
53.8169
49.6345
46.4576
44.1537
42.5811
41.6126
41.1533
41.1533
41.6126
42.5811
44.1537
46.4576
49.6345
53.8169
59.1005
65.5171
73.0121
81.4337
90.5363
100
-300
-300
-300
-300
-300
-300
-300
-300
-300
-300
-300
-300
-300
-300
100
90.5391
81.439
73.0197
65.5266
59.1115
53.8287
49.6466
46.4695
44.165
42.5915
41.6217
41.1612
41.1598
41.6177
42.5851
44.1566
46.4596
49.6358
53.8178
59.1011
65.5174
73.0122
81.4338
90.5364
100
-300
-300
-300
-300
-300
-300
-300
-300
-300
-300
100
89.6762
79.7463
70.5594
62.3834
55.384
49.6206
45.0584
41.5933
39.0804
37.3652
36.3088
35.808
35.808
36.3088
37.3652
39.0804
41.5933
45.0584
49.6206
55.384
62.3834
70.5594
79.7463
89.6762
100
-300
-300
-300
-300
-300
-300
-300
-300
-300
-300
-300
-300
-300
-300
100
89.6819
79.7573
70.5751
62.403
55.4065
49.6448
45.0834
41.6179
39.1038
37.3866
36.3277
35.8241
35.8213
36.3194
37.3733
39.0864
41.5975
45.0613
49.6223
55.3851
62.384
70.5596
79.7464
89.6762
100
-300
-300
-300
-300
-300
-300
-300
-300
-300
-300
100
89.0192
78.4573
68.6858
59.9897
52.5452
46.4153
41.5633
37.878
35.2056
33.3815
32.2581
31.7256
31.7256
32.2581
33.3815
35.2056
37.878
41.5633
46.4153
52.5452
59.9897
68.6858
78.4573
89.0192
100
-300
-300
-300
-300
-300
-300
-300
-300
-300
-300
-300
-300
-300
-300
100
89.0304
78.4792
68.7171
60.0288
52.5901
46.4638
41.6132
37.9272
35.2524
33.4244
32.2961
31.758
31.7523
32.2794
33.3978
35.2176
37.8864
41.5689
46.4188
52.5472
59.9907
68.6862
78.4574
89.0192
100
-300
-300
-300
-300
-300
-300
-300
-300
-300
-300
100
88.5357
77.5089
67.3073
58.2286
50.4566
44.0572
38.992
35.1449
32.3552
30.4512
29.2785
28.7226
28.7226
29.2785
30.4512
32.3552
35.1449
38.992
44.0572
50.4566
58.2286
67.3073
77.5089
88.5357
100
-300
-300
-300
-300
-300
-300
-300
-300
-300
-300
-300
-300
-300
-300
100
88.5575
77.5513
67.368
58.3044
50.5436
44.1513
39.0889
35.2406
32.4462
30.5346
29.3524
28.7857
28.7746
29.3199
30.4828
32.3785
35.1612
39.0028
44.0639
50.4604
58.2304
67.308
77.509
88.5357
100
-300
-300
-300
-300
-300
-300
-300
-300
-300
-300
100
88.193
76.8365
66.3301
56.9801
48.9761
42.3857
37.1695
33.2077
30.335
28.3743
27.1668
26.5944
26.5944
27.1668
28.3743
30.335
33.2077
37.1695
42.3857
48.9761
56.9801
66.3301
76.8365
88.193
100
-300
-300
-300
-300
-300
-300
-300
-300
-300
-300
-300
-300
-300
-300
100
88.2338
76.9161
66.444
57.1225
49.1397
42.5628
37.352
33.3881
30.5066
28.5317
27.3062
26.7135
26.6926
27.2449
28.4341
30.3788
33.2384
37.1897
42.3982
48.983
56.9833
66.3312
76.8366
88.1928
100
-300
-300
-300
-300
-300
-300
-300
-300
-300
-300
100
87.9588
76.3771
65.6624
56.1271
47.9646
41.2438
35.9244
31.8844
28.955
26.9557
25.7244
25.1407
25.1407
25.7244
26.9557
28.955
31.8844
35.9244
41.2438
47.9646
56.1271
65.6624
76.3771
87.9588
100
-300
-300
-300
-300
-300
-300
-300
-300
-300
-300
-300
-300
-300
-300
100
88.0332
76.5219
65.8698
56.3865
48.2629
41.5668
36.2576
32.214
29.2688
27.2437
25.9795
25.3587
25.3205
25.8672
27.0648
29.0349
31.94
35.9609
41.2659
47.9765
56.1324
65.6638
76.3768
87.9582
100
-300
-300
-300
-300
-300
-300
-300
-300
-300
-300
100
87.8045
76.0744
65.2224
55.5651
47.2982
40.4915
35.1042
31.0126
28.0459
26.0212
24.7743
24.1832
24.1832
24.7743
26.0212
28.0459
31.0126
35.1042
40.4915
47.2982
55.5651
65.2224
76.0744
87.8045
100
-300
-300
-300
-300
-300
-300
-300
-300
-300
-300
-300
-300
-300
-300
100
87.9356
76.3298
65.5885
56.0231
47.8253
41.0628
35.6941
31.5968
28.6025
26.5324
25.2272
24.5704
24.5024
25.0277
26.2145
28.1871
31.1106
35.168
40.5296
47.318
55.5731
65.2237
76.073
87.803
100
-300
-300
-300
-300
-300
-300
-300
-300
-300
-300
100
87.7064
75.882
64.9428
55.208
46.8746
40.0134
34.583
30.4587
27.4683
25.4274
24.1706
23.5748
23.5748
24.1706
25.4274
27.4683
30.4587
34.583
40.0134
46.8746
55.208
64.9428
75.882
87.7064
100
-300
-300
-300
-300
-300
-300
-300
-300
-300
-300
-300
-300
-300
-300
100
87.9305
76.3185
65.5689
55.9918
47.7777
40.9931
35.5957
31.4626
28.4257
26.3074
24.9506
24.2416
24.1242
24.6063
25.7592
27.7098
30.6254
34.6905
40.0764
46.9061
55.219
64.9426
75.8778
87.703
100
-300
-300
-300
-300
-300
-300
-300
-300
-300
-300
100
87.6462
75.764
64.7713
54.9889
46.6148
39.7202
34.2633
30.119
27.1141
25.0633
23.8004
23.2017
23.2017
23.8004
25.0633
27.1141
30.119
34.2633
39.7202
46.6148
54.9889
64.7713
75.764
87.6462
100
-300
-300
-300
-300
-300
-300
-300
-300
-300
-300
-300
-300
-300
-300
100
88.0174
76.487
65.8089
56.289
48.1143
41.3489
35.949
31.792
28.7114
26.5326
25.1033
24.3153
24.1185
24.5264
25.6149
27.5141
30.3935
34.4383
39.8203
46.662
55.002
64.7663
75.7533
87.6386
100
-300
-300
-300
-300
-300
-300
-300
-300
-300
-300
100
87.6106
75.6941
64.6697
54.8591
46.461
39.5465
34.074
29.9178
26.9044
24.8477
23.5812
22.9808
22.9808
23.5812
24.8477
26.9044
29.9178
34.074
39.5465
46.461
54.8591
64.6697
75.6941
87.6106
100
-300
-300
-300
-300
-300
-300
-300
-300
-300
-300
-300
-300
-300
-300
100
88.206
76.8545
66.3362
56.9492
48.8744
42.1716
36.795
32.6222
29.4894
27.2276
25.6921
24.7843
24.464
24.7536
25.736
27.5458
30.3547
34.3487
39.6991
46.5272
54.8703
64.6525
75.6698
87.5944
100
-300
-300
-300
-300
-300
-300
-300
-300
-300
-300
100
87.5902
75.6541
64.6115
54.7848
46.373
39.4471
33.9657
29.8028
26.7844
24.7244
23.4558
22.8545
22.8545
23.4558
24.7244
26.7844
29.8028
33.9657
39.4471
46.373
54.7848
64.6115
75.6541
87.5902
100
-300
-300
-300
-300
-300
-300
-300
-300
-300
-300
-300
-300
-300
-300
100
88.5159
77.4589
67.2056
58.0418
50.1388
43.5499
38.2258
34.0439
30.8441
28.4651
26.7743
25.6878
25.1812
25.2907
26.1097
27.7795
30.4745
34.381
39.669
46.4581
54.7835
64.5673
75.6026
87.5575
100
-300
-300
-300
-300
-300
-300
-300
-300
-300
-300
100
87.5789
75.6319
64.5794
54.7438
46.3243
39.3922
33.9058
29.7391
26.7181
24.6562
23.3865
22.7846
22.7846
23.3865
24.6562
26.7181
29.7391
33.9058
39.3922
46.3243
54.7438
64.5794
75.6319
87.5789
100
-300
-300
-300
-300
-300
-300
-300
-300
-300
-300
-300
-300
-300
-300
100
88.9735
78.3523
68.4928
59.6635
52.0218
45.6114
40.3771
36.1947
32.9077
30.3649
28.4506
27.1038
26.3241
26.1694
26.7485
28.2115
30.7366
34.5096
39.6983
46.4199
54.7072
64.4802
75.5287
87.5154
100
-300
-300
-300
-300
-300
-300
-300
-300
-300
-300
100
87.5728
75.6201
64.5622
54.7218
46.2982
39.3628
33.8738
29.7051
26.6826
24.6198
23.3495
22.7473
22.7473
23.3495
24.6198
26.6826
29.7051
33.8738
39.3628
46.2982
54.7218
64.5622
75.6201
87.5728
100
-300
-300
-300
-300
-300
-300
-300
-300
-300
-300
-300
-300
-300
-300
100
89.6093
79.5946
70.2856
61.9273
54.6589
48.51
43.416
39.248
35.8509
33.0842
30.8556
29.1384
27.9698
27.4396
27.679
28.85
31.1343
34.7163
39.7603
46.38
54.6065
64.358
75.4218
87.4534
100
-300
-300
-300
-300
-300
-300
-300
-300
-300
-300
100
87.5697
75.614
64.5533
54.7104
46.2848
39.3476
33.8572
29.6875
26.6643
24.601
23.3303
22.728
22.728
23.3303
24.601
26.6643
29.6875
33.8572
39.3476
46.2848
54.7104
64.5533
75.614
87.5697
100
-300
-300
-300
-300
-300
-300
-300
-300
-300
-300
-300
-300
-300
-300
100
90.4525
81.244
72.6699
64.946
58.1879
52.4067
47.5235
43.3981
39.8703
36.8072
34.1458
31.9125
30.2032
29.1554
28.9304
29.7046
31.6618
34.9827
39.8258
46.3012
54.4389
64.1583
75.2463
87.3509
100
-300
-300
-300
-300
-300
-300
-300
-300
-300
-300
100
87.5682
75.6109
64.5488
54.7048
46.278
39.34
33.8489
29.6787
26.6551
24.5915
23.3207
22.7183
22.7183
23.3207
24.5915
26.6551
29.6787
33.8489
39.34
46.278
54.7048
64.5488
75.6109
87.5682
100
-300
-300
-300
-300
-300
-300
-300
-300
-300
-300
-300
-300
-300
-300
100
91.5257
83.3457
75.7141
68.8119
62.7266
57.4468
52.8729
48.8435
45.1777
41.7356
38.4862
35.5437
33.0985
31.3573
30.5196
30.7749
32.3054
35.2831
39.8577
46.1349
54.1469
63.8205
74.9492
87.1759
100
-300
-300
-300
-300
-300
-300
-300
-300
-300
-300
100
87.5674
75.6094
64.5467
54.702
46.2748
39.3363
33.8449
29.6744
26.6506
24.5869
23.3161
22.7136
22.7136
23.3161
24.5869
26.6506
29.6744
33.8449
39.3363
46.2748
54.702
64.5467
75.6094
87.5674
100
-300
-300
-300
-300
-300
-300
-300
-300
-300
-300
-300
-300
-300
-300
100
92.8388
85.9202
79.4512
73.5741
68.3463
63.7317
59.6053
55.77
51.9947
48.0896
44.0386
40.1235
36.6938
34.0513
32.4348
32.0395
33.0361
35.5798
39.8067
45.8174
53.6513
63.2549
74.4451
86.8733
100
-300
-300
-300
-300
-300
-300
-300
-300
-300
-300
100
87.567
75.6087
64.5457
54.7007
46.2732
39.3346
33.843
29.6724
26.6485
24.5848
23.3139
22.7114
22.7114
23.3139
24.5848
26.6485
29.6724
33.843
39.3346
46.2732
54.7007
64.5457
75.6087
87.567
100
-300
-300
-300
-300
-300
-300
-300
-300
-300
-300
-300
-300
-300
-300
100
94.3833
88.9521
83.8626
79.217
75.0442
71.2881
67.7998
64.335
60.564
56.1401
50.9526
45.6837
40.9567
37.1824
34.6198
33.447
33.8056
35.822
39.6113
45.2678
52.8452
62.3284
73.5934
86.3416
100
-300
-300
-300
-300
-300
-300
-300
-300
-300
-300
100
87.5669
75.6084
64.5452
54.7001
46.2725
39.3338
33.8422
29.6715
26.6476
24.5838
23.3129
22.7104
22.7104
23.3129
24.5838
26.6476
29.6715
33.8422
39.3338
46.2725
54.7001
64.5452
75.6084
87.5669
100
-300
-300
-300
-300
-300
-300
-300
-300
-300
-300
-300
-300
-300
-300
100
96.1292
92.3833
88.8662
85.6418
82.7184
80.0335
77.4343
74.642
71.1871
66.3371
59.3448
52.1307
45.7332
40.6072
36.9612
34.912
34.5472
35.9496
39.2044
44.3953
51.5944
60.8486
72.1531
85.3736
100
-300
-300
-300
-300
-300
-300
-300
-300
-300
-300
100
87.5668
75.6083
64.545
54.6998
46.2722
39.3335
33.8418
29.6711
26.6471
24.5834
23.3125
22.71
22.71
23.3125
24.5834
26.6471
29.6711
33.8418
39.3335
46.2722
54.6998
64.545
75.6083
87.5668
100
-300
-300
-300
-300
-300
-300
-300
-300
-300
-300
-300
-300
-300
-300
100
98.0247
96.112
94.3137
92.6598
91.1495
89.7389
88.3201
86.6651
84.2607
79.7746
69.1682
59.0931
50.6759
44.0717
39.2876
36.3217
35.185
35.9052
38.5281
43.1172
49.7552
58.5578
69.7082
83.4883
100
-300
-300
-300
-300
-300
-300
-300
-300
-300
-300
100
87.5668
75.6082
64.5449
54.6997
46.2721
39.3333
33.8416
29.6709
26.647
24.5832
23.3123
22.7098
22.7098
23.3123
24.5832
26.647
29.6709
33.8416
39.3333
46.2721
54.6997
64.5449
75.6082
87.5668
100
-300
-300
-300
-300
-300
-300
-300
-300
-300
-300
-300
-300
-300
-300
100
100
100
100
100
100
100
100
100
100
100
79.4013
65.5869
55.1842
47.2283
41.396
37.5571
35.6508
35.6508
37.5571
41.396
47.2283
55.1841
65.5868
79.4012
100
100
100
100
100
100
100
100
100
100
100
100
87.5668
75.6082
64.5449
54.6997
46.272
39.3333
33.8415
29.6709
26.6469
24.5831
23.3122
22.7097
22.7097
23.3122
24.5831
26.6469
29.6709
33.8415
39.3332
46.272
54.6997
64.5449
75.6082
87.5668
100
-300
-300
-300
-300
-300
-300
-300
-300
-300
-300
-300
-300
-300
-300
-300
-300
-300
-300
-300
-300
-300
-300
-300
-300
100
83.4883
69.7082
58.5577
49.755
43.117
38.5279
35.9049
35.1847
36.3215
39.2874
44.0714
50.6756
59.0928
69.1679
79.7743
84.2604
86.6648
88.3199
89.7387
91.1493
92.6597
94.3136
96.112
98.0246
100
100
87.5668
75.6082
64.5449
54.6997
46.272
39.3332
33.8415
29.6708
26.6469
24.5831
23.3122
22.7097
22.7097
23.3122
24.5831
26.6469
29.6708
33.8415
39.3332
46.272
54.6997
64.5449
75.6082
87.5668
100
-300
-300
-300
-300
-300
-300
-300
-300
-300
-300
-300
-300
-300
-300
-300
-300
-300
-300
-300
-300
-300
-300
-300
-300
100
85.3734
72.1529
60.8483
51.594
44.3948
39.2038
35.9489
34.5465
34.9113
36.9605
40.6064
45.7324
52.13
59.3441
66.3364
71.1864
74.6414
77.4336
80.0329
82.7179
85.6414
88.8658
92.3831
96.1291
100
100
87.5668
75.6082
64.5449
54.6997
46.272
39.3332
33.8415
29.6708
26.6469
24.5831
23.3122
22.7097
22.7097
23.3122
24.5831
26.6468
29.6708
33.8415
39.3332
46.272
54.6996
64.5448
75.6082
87.5668
100
-300
-300
-300
-300
-300
-300
-300
-300
-300
-300
-300
-300
-300
-300
-300
-300
-300
-300
-300
-300
-300
-300
-300
-300
100
86.3413
73.5928
62.3276
52.8441
45.2666
39.6099
35.8205
33.804
33.4454
34.6181
37.1806
40.9549
45.682
50.9508
56.1383
60.5623
64.3334
67.7983
71.2867
75.043
79.2159
83.8618
88.9515
94.3831
100
100
87.5668
75.6082
64.5449
54.6997
46.272
39.3332
33.8415
29.6708
26.6468
24.5831
23.3122
22.7097
22.7097
23.3121
24.5831
26.6468
29.6708
33.8415
39.3332
46.272
54.6996
64.5448
75.6082
87.5668
100
-300
-300
-300
-300
-300
-300
-300
-300
-300
-300
-300
-300
-300
-300
-300
-300
-300
-300
-300
-300
-300
-300
-300
-300
100
86.8726
74.4439
63.2531
53.649
45.8146
39.8036
35.5764
33.0325
32.0358
32.4309
34.0473
36.6898
40.1195
44.0347
48.0857
51.9909
55.7664
59.6019
63.7286
68.3435
73.5718
79.4494
85.9189
92.8382
100
100
87.5668
75.6082
64.5449
54.6997
46.272
39.3332
33.8415
29.6708
26.6468
24.5831
23.3121
22.7097
22.7097
23.3121
24.583
26.6468
29.6708
33.8415
39.3332
46.2719
54.6996
64.5448
75.6081
87.5667
100
-300
-300
-300
-300
-300
-300
-300
-300
-300
-300
-300
-300
-300
-300
-300
-300
-300
-300
-300
-300
-300
-300
-300
-300
100
87.1745
74.9464
63.8165
54.1418
46.1288
39.8509
35.2756
32.2975
30.7666
30.5111
31.3487
33.0898
35.535
38.4776
41.7272
45.1695
48.8356
52.8655
57.44
62.7206
68.8068
75.7101
83.343
91.5243
100
100
87.5668
75.6082
64.5449
54.6997
46.272
39.3332
33.8415
29.6708
26.6468
24.5831
23.3121
22.7097
22.7097
23.3121
24.583
26.6468
29.6707
33.8414
39.3331
46.2719
54.6995
64.5447
75.6081
87.5667
100
-300
-300
-300
-300
-300
-300
-300
-300
-300
-300
-300
-300
-300
-300
-300
-300
-300
-300
-300
-300
-300
-300
-300
-300
100
87.3479
75.2404
64.1498
54.4279
46.2883
39.8113
34.9669
31.645
29.6871
28.9125
29.1371
30.1849
31.8942
34.1276
36.7893
39.8529
43.3814
47.5078
52.3923
58.1751
64.9352
72.6614
81.2382
90.4495
100
100
87.5668
75.6082
64.5449
54.6997
46.272
39.3332
33.8415
29.6708
26.6468
24.5831
23.3121
22.7096
22.7096
23.3121
24.5829
26.6467
29.6706
33.8412
39.3329
46.2717
54.6994
64.5446
75.608
87.5667
100
-300
-300
-300
-300
-300
-300
-300
-300
-300
-300
-300
-300
-300
-300
-300
-300
-300
-300
-300
-300
-300
-300
-300
-300
100
87.4472
75.4096
64.3404
54.5841
46.3535
39.7304
34.6838
31.0998
28.8141
27.6421
27.4022
27.9321
29.1007
30.8182
33.0475
35.8151
39.2137
43.3838
48.4804
54.6326
61.9052
70.2682
79.5827
89.6032
100
100
87.5668
75.6082
64.5449
54.6997
46.272
39.3332
33.8415
29.6708
26.6468
24.583
23.3121
22.7096
22.7096
23.312
24.5828
26.6465
29.6704
33.8409
39.3326
46.2713
54.699
64.5443
75.6077
87.5665
100
-300
-300
-300
-300
-300
-300
-300
-300
-300
-300
-300
-300
-300
-300
-300
-300
-300
-300
-300
-300
-300
-300
-300
-300
100
87.503
75.5045
64.445
54.6625
46.3669
39.6387
34.4448
30.6678
28.14
26.675
26.0948
26.249
27.0287
28.3761
30.2917
32.8365
36.1264
40.3128
45.5524
51.9695
59.6194
68.4583
78.3285
88.9614
100
100
87.5668
75.6082
64.5449
54.6997
46.272
39.3332
33.8415
29.6708
26.6468
24.583
23.312
22.7095
22.7094
23.3118
24.5825
26.6461
29.6699
33.8403
39.3319
46.2705
54.6982
64.5436
75.6072
87.5663
100
-300
-300
-300
-300
-300
-300
-300
-300
-300
-300
-300
-300
-300
-300
-300
-300
-300
-300
-300
-300
-300
-300
-300
-300
100
87.5336
75.5558
64.4993
54.6969
46.3556
39.5537
34.2557
30.3416
27.6412
25.9678
25.1466
25.0361
25.5429
26.6305
28.3237
30.7065
33.9119
38.1016
43.4359
50.0378
57.9566
67.1389
77.413
88.4925
100
100
87.5668
75.6082
64.5448
54.6997
46.272
39.3332
33.8415
29.6708
26.6468
24.5829
23.3119
22.7093
22.7091
23.3114
24.5819
26.6453
29.6688
33.839
39.3304
46.269
54.6967
64.5422
75.6062
87.5657
100
-300
-300
-300
-300
-300
-300
-300
-300
-300
-300
-300
-300
-300
-300
-300
-300
-300
-300
-300
-300
-300
-300
-300
-300
100
87.5496
75.5819
64.525
54.7079
46.3352
39.483
34.1138
30.1056
27.2867
25.4702
24.4838
24.1924
24.5129
25.4228
26.9628
29.2318
32.3751
36.5625
41.9583
48.6854
56.7898
66.2114
76.7686
88.1622
100
100
87.5668
75.6082
64.5448
54.6996
46.272
39.3332
33.8415
29.6707
26.6467
24.5828
23.3117
22.709
22.7086
23.3106
24.5808
26.6437
29.6668
33.8366
39.3275
46.2659
54.6936
64.5395
75.6042
87.5646
100
-300
-300
-300
-300
-300
-300
-300
-300
-300
-300
-300
-300
-300
-300
-300
-300
-300
-300
-300
-300
-300
-300
-300
-300
100
87.557
75.5935
64.5345
54.7068
46.3131
39.4277
34.0116
29.9413
27.0438
25.1323
24.0366
23.6254
23.8226
24.6146
26.0521
28.244
31.3437
35.5272
40.9619
47.7714
55.9998
65.5825
76.3311
87.9379
100
100
87.5668
75.6082
64.5448
54.6996
46.272
39.3332
33.8414
29.6707
26.6466
24.5826
23.3114
22.7084
22.7077
23.3091
24.5787
26.6408
29.663
33.8318
39.322
46.26
54.6877
64.5343
75.6002
87.5625
100
-300
-300
-300
-300
-300
-300
-300
-300
-300
-300
-300
-300
-300
-300
-300
-300
-300
-300
-300
-300
-300
-300
-300
-300
100
87.5591
75.596
64.5341
54.6988
46.2914
39.3851
33.9394
29.8297
26.8823
24.9104
23.7448
23.2571
23.3752
24.0914
25.4626
27.604
30.6745
34.8542
40.3129
47.175
55.4835
65.1709
76.0446
87.7909
100
100
87.5668
75.6082
64.5448
54.6996
46.272
39.3331
33.8414
29.6706
26.6464
24.5822
23.3107
22.7073
22.7059
23.3064
24.5748
26.6355
29.656
33.8231
39.3119
46.2489
54.6767
64.5245
75.5928
87.5585
100
-300
-300
-300
-300
-300
-300
-300
-300
-300
-300
-300
-300
-300
-300
-300
-300
-300
-300
-300
-300
-300
-300
-300
-300
100
87.5571
75.5914
64.5257
54.6847
46.2687
39.3499
33.8869
29.7539
26.7766
24.7681
23.5598
23.0251
23.0945
23.7637
25.0934
27.2029
30.2547
34.4313
39.9045
46.7991
55.1576
64.9109
75.8635
87.6979
100
100
87.5668
75.6082
64.5448
54.6996
46.2719
39.3331
33.8413
29.6704
26.646
24.5816
23.3095
22.7054
22.7028
23.3018
24.568
26.626
29.6435
33.8075
39.2935
46.2288
54.6566
64.5064
75.5791
87.5511
100
-300
-300
-300
-300
-300
-300
-300
-300
-300
-300
-300
-300
-300
-300
-300
-300
-300
-300
-300
-300
-300
-300
-300
-300
100
87.5506
75.5788
64.5078
54.6618
46.2408
39.3157
33.844
29.6991
26.7059
24.6771
23.4446
22.8827
22.9234
23.5646
24.8696
26.9598
30
34.1745
39.6561
46.5702
54.959
64.7523
75.7529
87.6411
100
100
87.5668
75.6082
64.5448
54.6996
46.2719
39.333
33.8411
29.67
26.6454
24.5804
23.3076
22.7021
22.6977
23.2939
24.5564
26.6098
29.6218
33.7803
39.2614
46.1934
54.6209
64.4742
75.5545
87.5377
100
-300
-300
-300
-300
-300
-300
-300
-300
-300
-300
-300
-300
-300
-300
-300
-300
-300
-300
-300
-300
-300
-300
-300
-300
100
87.5376
75.5546
64.4752
54.6241
46.2003
39.2738
33.8006
29.6525
26.6536
24.6161
23.3719
22.7959
22.8212
23.4469
24.7378
26.8169
29.8504
34.0236
39.5101
46.4355
54.842
64.6588
75.6877
87.6076
100
100
87.5668
75.6082
64.5448
54.6996
46.2718
39.3329
33.8408
29.6695
26.6444
24.5786
23.3045
22.6969
22.6893
23.2809
24.5373
26.5828
29.5857
33.7344
39.2066
46.1327
54.559
64.4179
75.5114
87.5142
100
-300
-300
-300
-300
-300
-300
-300
-300
-300
-300
-300
-300
-300
-300
-300
-300
-300
-300
-300
-300
-300
-300
-300
-300
100
87.5142
75.5115
64.4186
54.5608
46.1365
39.2134
33.7453
29.602
26.6061
24.569
23.3223
22.7413
22.76
23.3783
24.662
26.7354
29.7652
33.9377
39.427
46.3589
54.7754
64.6055
75.6505
87.5885
100
100
87.5668
75.6081
64.5448
54.6995
46.2717
39.3327
33.8404
29.6687
26.6428
24.5759
23.2996
22.6888
22.6761
23.2604
24.5068
26.5395
29.5271
33.6594
39.1162
46.0312
54.4545
64.322
75.4371
87.4735
100
-300
-300
-300
-300
-300
-300
-300
-300
-300
-300
-300
-300
-300
-300
-300
-300
-300
-300
-300
-300
-300
-300
-300
-300
100
87.4735
75.4372
64.3224
54.4555
46.0332
39.1198
33.665
29.5356
26.5515
24.5231
23.2817
22.7028
22.7212
23.3376
24.6187
26.6897
29.718
33.8903
39.3812
46.3166
54.7386
64.5761
75.63
87.578
100
100
87.5667
75.6081
64.5448
54.6995
46.2716
39.3323
33.8398
29.6675
26.6406
24.5717
23.2924
22.6765
22.6561
23.2291
24.4599
26.4723
29.4353
33.5405
38.9711
45.8662
54.2824
64.1618
75.3117
87.4042
100
-300
-300
-300
-300
-300
-300
-300
-300
-300
-300
-300
-300
-300
-300
-300
-300
-300
-300
-300
-300
-300
-300
-300
-300
100
87.4042
75.3118
64.162
54.2829
45.8672
38.9729
33.5433
29.4395
26.4783
24.468
23.2397
22.6694
22.6926
23.3113
24.5931
26.6639
29.6921
33.8647
39.3566
46.294
54.719
64.5605
75.6191
87.5724
100
100
87.5667
75.6081
64.5447
54.6994
46.2714
39.3319
33.8389
29.6658
26.6373
24.5658
23.2819
22.6586
22.6269
23.1831
24.3903
26.3715
29.2961
33.3578
38.7451
45.6049
54.0052
63.8994
75.103
87.2876
100
-300
-300
-300
-300
-300
-300
-300
-300
-300
-300
-300
-300
-300
-300
-300
-300
-300
-300
-300
-300
-300
-300
-300
-300
100
87.2876
75.1031
63.8995
54.0054
45.6055
38.7459
33.3592
29.2982
26.3744
24.3943
23.1883
22.6333
22.6665
23.291
24.5761
26.6486
29.6777
33.851
39.3437
46.2823
54.7089
64.5523
75.6134
87.5695
100
100
87.5667
75.6081
64.5447
54.6992
46.2711
39.3313
33.8377
29.6634
26.6328
24.5576
23.2674
22.6338
22.5859
23.118
24.2909
26.226
29.0925
33.0866
38.4036
45.2026
53.5689
63.4768
74.7595
87.0922
100
-300
-300
-300
-300
-300
-300
-300
-300
-300
-300
-300
-300
-300
-300
-300
-300
-300
-300
-300
-300
-300
-300
-300
-300
100
87.0922
74.7596
63.4769
53.569
45.2028
38.404
33.0873
29.0934
26.2274
24.2928
23.1204
22.5889
22.6375
23.2717
24.5625
26.6382
29.669
33.8434
39.3369
46.2762
54.7037
64.5483
75.6106
87.568
100
100
87.5667
75.6081
64.5446
54.6991
46.2707
39.3305
33.8361
29.6603
26.627
24.5467
23.248
22.6005
22.5306
23.0294
24.1544
26.0237
28.8054
32.6979
37.9043
44.6002
52.8975
62.8063
74.1969
86.7632
100
-300
-300
-300
-300
-300
-300
-300
-300
-300
-300
-300
-300
-300
-300
-300
-300
-300
-300
-300
-300
-300
-300
-300
-300
100
86.7632
74.1969
62.8064
52.8976
44.6003
37.9044
32.6982
28.8059
26.0244
24.1552
23.0305
22.532
22.6022
23.25
24.549
26.6294
29.6629
33.8387
39.3331
46.2731
54.7011
64.5462
75.6092
87.5673
100
100
87.5667
75.608
64.5445
54.6989
46.2703
39.3296
33.8342
29.6564
26.6195
24.533
23.2234
22.5578
22.4591
22.9139
23.9744
25.7539
28.4166
32.1615
37.1995
43.7257
51.8888
61.7564
73.2736
86.1979
100
-300
-300
-300
-300
-300
-300
-300
-300
-300
-300
-300
-300
-300
-300
-300
-300
-300
-300
-300
-300
-300
-300
-300
-300
100
86.1979
73.2736
61.7564
51.8888
43.7257
37.1996
32.1617
28.4168
25.7542
23.9748
22.9144
22.4597
22.5585
23.2242
24.5339
26.6206
29.6576
33.8353
39.3307
46.2713
54.6998
64.5452
75.6085
87.567
100
100
87.5667
75.608
64.5444
54.6986
46.2697
39.3284
33.8318
29.6517
26.6105
24.5162
23.1932
22.5052
22.3705
22.7696
23.7474
25.4092
27.9124
31.4521
36.2437
42.5006
50.4145
60.1353
71.7456
85.1845
100
-300
-300
-300
-300
-300
-300
-300
-300
-300
-300
-300
-300
-300
-300
-300
-300
-300
-300
-300
-300
-300
-300
-300
-300
100
85.1845
71.7456
60.1353
50.4145
42.5006
36.2437
31.4522
27.9124
25.4093
23.7476
22.7699
22.3708
22.5055
23.1936
24.5166
26.611
29.6522
33.8323
39.3289
46.2702
54.699
64.5447
75.6082
87.5668
100
100
87.5667
75.6079
64.5443
54.6983
46.2691
39.3271
33.8291
29.6463
26.6001
24.4967
23.1579
22.4434
22.2657
22.5976
23.4741
24.9892
27.2885
30.5574
35.0065
40.8579
48.3374
57.684
69.1875
83.2281
100
-300
-300
-300
-300
-300
-300
-300
-300
-300
-300
-300
-300
-300
-300
-300
-300
-300
-300
-300
-300
-300
-300
-300
-300
100
83.2281
69.1875
57.684
48.3374
40.8579
35.0065
30.5574
27.2886
24.9893
23.4741
22.5977
22.2658
22.4436
23.1581
24.4969
26.6003
29.6466
33.8293
39.3273
46.2693
54.6985
64.5444
75.608
87.5667
100
100
87.5667
75.6079
64.5442
54.6981
46.2685
39.3257
33.8262
29.6404
26.5886
24.4751
23.1186
22.3741
22.1473
22.4019
23.1606
24.5026
26.5561
29.4882
33.4923
38.777
45.5655
54.1268
64.906
78.9982
100
100
100
100
100
100
100
100
100
100
100
100
100
100
100
100
100
100
100
100
100
100
100
100
100
100
78.9982
64.906
54.1268
45.5655
38.777
33.4923
29.4882
26.5561
24.5026
23.1606
22.4019
22.1474
22.3741
23.1186
24.4752
26.5887
29.6405
33.8262
39.3258
46.2685
54.6981
64.5442
75.6079
87.5667
100
100
87.5667
75.6079
64.5441
54.6978
46.2679
39.3243
33.8231
29.6342
26.5765
24.4522
23.0766
22.2998
22.02
22.1902
22.8191
23.968
25.7432
28.2856
31.758
36.3299
42.165
49.4105
58.1753
68.3947
78.9982
83.2281
85.1845
86.1979
86.7632
87.0922
87.2876
87.4041
87.4733
87.5137
87.5367
87.5489
87.5542
87.5542
87.5489
87.5367
87.5137
87.4733
87.4041
87.2876
87.0922
86.7632
86.1979
85.1845
83.2281
78.9982
68.3947
58.1753
49.4105
42.165
36.3299
31.758
28.2856
25.7432
23.968
22.8191
22.1902
22.02
22.2999
23.0766
24.4522
26.5765
29.6343
33.8232
39.3244
46.2679
54.6979
64.5441
75.6079
87.5667
100
100
87.5667
75.608
64.5442
54.6978
46.2674
39.3231
33.8203
29.6282
26.5644
24.4291
23.0341
22.2242
21.8896
21.9724
22.4661
23.4124
24.8928
27.0181
29.9136
33.7001
38.4708
44.2554
50.9528
58.1753
64.906
69.1875
71.7456
73.2736
74.1969
74.7595
75.1029
75.3115
75.4367
75.5104
75.5526
75.5751
75.5849
75.5849
75.5751
75.5526
75.5104
75.4367
75.3115
75.1029
74.7595
74.1969
73.2736
71.7456
69.1875
64.906
58.1753
50.9528
44.2554
38.4708
33.7001
29.9136
27.0181
24.8928
23.4124
22.4661
21.9724
21.8896
22.2242
23.0341
24.4291
26.5644
29.6282
33.8203
39.3231
46.2675
54.6978
64.5442
75.608
87.5667
100
100
87.5669
75.6082
64.5445
54.698
46.2674
39.3224
33.8181
29.6229
26.5533
24.4072
22.9933
22.151
21.7629
21.7597
22.1202
22.8662
24.0544
25.7654
28.0881
31.1002
34.8417
39.2797
44.2554
49.4105
54.1268
57.684
60.1353
61.7564
62.8063
63.4768
63.8992
64.1615
64.3214
64.4167
64.4716
64.5011
64.5139
64.5139
64.5011
64.4716
64.4167
64.3214
64.1615
63.8992
63.4768
62.8063
61.7564
60.1353
57.684
54.1268
49.4105
44.2554
39.2797
34.8417
31.1002
28.0881
25.7654
24.0544
22.8662
22.1202
21.7597
21.7629
22.151
22.9934
24.4072
26.5533
29.6229
33.8181
39.3224
46.2674
54.698
64.5445
75.6082
87.5669
100
100
87.5672
75.6089
64.5454
54.699
46.2683
39.3228
33.8171
29.6192
26.5441
24.3882
22.9567
22.0843
21.6461
21.5628
21.799
22.3579
23.2738
24.6002
26.3955
28.7049
31.538
34.8417
38.4708
42.165
45.5655
48.3374
50.4145
51.8887
52.8975
53.5688
54.005
54.2821
54.4539
54.5576
54.6179
54.6506
54.6648
54.6648
54.6506
54.6179
54.5576
54.4539
54.2821
54.005
53.5688
52.8975
51.8887
50.4145
48.3374
45.5655
42.165
38.4708
34.8417
31.538
28.7049
26.3955
24.6002
23.2738
22.3579
21.799
21.5628
21.6461
22.0843
22.9567
24.3882
26.5441
29.6192
33.8171
39.3228
46.2683
54.699
64.5454
75.6089
87.5672
100
100
87.5679
75.6103
64.5474
54.7015
46.271
39.3252
33.8186
29.6183
26.5387
24.374
22.927
22.0278
21.5453
21.3909
21.5167
21.9103
22.5864
23.5762
24.9148
26.626
28.7049
31.1002
33.7001
36.3299
38.777
40.8579
42.5006
43.7257
44.6002
45.2025
45.6048
45.8658
46.0305
46.1312
46.1904
46.2227
46.2369
46.2369
46.2227
46.1904
46.1312
46.0305
45.8658
45.6048
45.2025
44.6002
43.7257
42.5006
40.8579
38.777
36.3299
33.7001
31.1002
28.7049
26.626
24.9148
23.5762
22.5864
21.9103
21.5167
21.3909
21.5453
22.0278
22.927
24.374
26.5387
29.6183
33.8186
39.3252
46.271
54.7015
64.5474
75.6103
87.5679
100
100
87.5695
75.6133
64.5518
54.707
46.2773
39.3318
33.8247
29.6228
26.5394
24.3676
22.9074
21.9856
21.4656
21.251
21.2838
21.5384
22.0138
22.7241
23.6877
24.9148
26.3955
28.0881
29.9136
31.758
33.4923
35.0065
36.2437
37.1995
37.9042
38.4035
38.7449
38.9708
39.1156
39.2053
39.2585
39.2878
39.3007
39.3007
39.2878
39.2585
39.2053
39.1156
38.9708
38.7449
38.4035
37.9042
37.1995
36.2437
35.0065
33.4923
31.758
29.9136
28.0881
26.3955
24.9148
23.6877
22.7241
22.0138
21.5384
21.2838
21.251
21.4656
21.9856
22.9074
24.3676
26.5394
29.6228
33.8247
39.3318
46.2773
54.707
64.5518
75.6133
87.5695
100
100
87.5726
75.6194
64.5606
54.7182
46.2903
39.3461
33.8395
29.6369
26.551
24.3735
22.903
21.963
21.4127
21.1496
21.1075
21.2505
21.5658
22.0547
22.7241
23.5762
24.6002
25.7654
27.0181
28.2856
29.4882
30.5574
31.4521
32.1615
32.6979
33.0866
33.3577