# vtk DataFile Version 2.0
LBE two cylinders
ASCII
DATASET STRUCTURED_POINTS
DIMENSIONS 76 76 1
ASPECT_RATIO 1 1 1
ORIGIN 0 0 0
POINT_DATA 5776
SCALARS temp double 1
LOOKUP_TABLE default
100
100
100
100
100
100
100
100
100
100
100
100
100
100
100
100
100
100
100
100
100
100
100
100
100
100
-300
-300
-300
-300
-300
-300
-300
-300
-300
-300
-300
-300
-300
-300
100
100
100
100
100
100
100
100
100
100
100
100
100
100
100
100
100
100
100
100
100
100
100
100
100
100
-300
-300
-300
-300
-300
-300
-300
-300
-300
-300
100
98.3296
96.7142
95.2035
93.8371
92.6423
91.6325
90.8088
90.162
89.6763
89.3335
89.1163
89.0113
89.0113
89.1163
89.3335
89.6763
90.162
90.8088
91.6325
92.6423
93.8371
95.2035
96.7142
98.3296
100
-300
-300
-300
-300
-300
-300
-300
-300
-300
-300
-300
-300
-300
-300
100
98.3298
96.7145
95.2039
93.8376
92.6429
91.6332
90.8095
90.1626
89.6769
89.3341
89.1168
89.0118
89.0117
89.1166
89.3338
89.6765
90.1621
90.8089
91.6326
92.6423
93.8371
95.2035
96.7142
98.3296
100
-300
-300
-300
-300
-300
-300
-300
-300
-300
-300
100
96.7141
93.5364
90.5645
87.8767
85.5264
83.5401
81.9197
80.6473
79.692
79.0178
78.5905
78.3839
78.3839
78.5905
79.0178
79.692
80.6473
81.9197
83.5401
85.5264
87.8767
90.5645
93.5364
96.7141
100
-300
-300
-300
-300
-300
-300
-300
-300
-300
-300
-300
-300
-300
-300
100
96.7145
93.5372
90.5656
87.878
85.5279
83.5417
81.9214
80.649
79.6936
79.0193
78.5918
78.3851
78.3849
78.5913
79.0184
79.6925
80.6477
81.92
83.5403
85.5265
87.8768
90.5646
93.5365
96.7141
100
-300
-300
-300
-300
-300
-300
-300
-300
-300
-300
100
95.203
90.5639
86.2253
82.3014
78.8703
75.9706
73.6052
71.7476
70.3531
69.3688
68.7451
68.4436
68.4436
68.7451
69.3688
70.3531
71.7476
73.6052
75.9706
78.8703
82.3014
86.2253
90.5639
95.203
100
-300
-300
-300
-300
-300
-300
-300
-300
-300
-300
-300
-300
-300
-300
100
95.2038
90.5655
86.2276
82.3043
78.8735
75.9742
73.6088
71.7513
70.3566
69.3721
68.748
68.4462
68.4458
68.7469
69.3702
70.3542
71.7484
73.6057
75.971
78.8705
82.3016
86.2254
90.564
95.203
100
-300
-300
-300
-300
-300
-300
-300
-300
-300
-300
100
93.8358
87.8746
82.2994
77.2573
72.8483
69.1224
66.0829
63.6961
61.9042
60.6396
59.8381
59.4507
59.4507
59.8381
60.6396
61.9042
63.6961
66.0829
69.1224
72.8483
77.2573
82.2994
87.8746
93.8358
100
-300
-300
-300
-300
-300
-300
-300
-300
-300
-300
-300
-300
-300
-300
100
93.8375
87.8778
82.3041
77.2631
72.855
69.1297
66.0904
63.7036
61.9114
60.6463
59.8442
59.456
59.4552
59.8418
60.6424
61.9064
63.6977
66.084
69.1231
72.8488
77.2576
82.2996
87.8747
93.8359
100
-300
-300
-300
-300
-300
-300
-300
-300
-300
-300
100
92.6393
85.5209
78.8636
72.8428
67.5781
63.1291
59.4998
56.6499
54.5104
53.0004
52.0436
51.581
51.581
52.0436
53.0004
54.5104
56.6499
59.4998
63.1291
67.5781
72.8428
78.8636
85.5209
92.6393
100
-300
-300
-300
-300
-300
-300
-300
-300
-300
-300
-300
-300
-300
-300
100
92.6426
85.5274
78.8729
72.8545
67.5916
63.1437
59.515
56.665
54.5249
53.0139
52.0557
51.5916
51.5899
52.0509
53.0062
54.5148
56.6532
59.5021
63.1307
67.5791
72.8434
78.8639
85.5211
92.6394
100
-300
-300
-300
-300
-300
-300
-300
-300
-300
-300
100
91.6262
83.5281
75.9545
69.1052
63.1161
58.0549
53.9264
50.6845
48.2507
46.5331
45.4447
44.9186
44.9186
45.4447
46.5331
48.2507
50.6845
53.9264
58.0549
63.1161
69.1052
75.9545
83.5281
91.6262
100
-300
-300
-300
-300
-300
-300
-300
-300
-300
-300
-300
-300
-300
-300
100
91.6326
83.5406
75.9726
69.1278
63.1422
58.0833
53.9558
50.7138
48.2789
46.5594
45.4683
44.9391
44.9359
45.4589
46.5444
48.2593
50.6908
53.9308
58.0579
63.118
69.1064
75.9552
83.5284
91.6263
100
-300
-300
-300
-300
-300
-300
-300
-300
-300
-300
100
90.7962
81.8954
73.5713
66.0432
59.4607
53.8981
49.3606
45.7977
43.123
41.2354
40.0393
39.4611
39.4611
40.0393
41.2354
43.123
45.7977
49.3606
53.8981
59.4607
66.0432
73.5713
81.8954
90.7962
100
-300
-300
-300
-300
-300
-300
-300
-300
-300
-300
-300
-300
-300
-300
100
90.8084
81.9192
73.6054
66.086
59.51
53.9519
49.4164
45.8533
43.1765
41.2851
40.084
39.5001
39.494
40.0662
41.2567
43.1393
45.8097
49.369
53.9038
59.4642
66.0453
73.5725
81.896
90.7964
100
-300
-300
-300
-300
-300
-300
-300
-300
-300
-300
100
90.1381
80.601
71.6818
63.6156
56.5626
50.6027
45.741
41.9237
39.058
37.0357
35.7542
35.1348
35.1348
35.7542
37.0357
39.058
41.9237
45.741
50.6027
56.5626
63.6156
71.6818
80.601
90.1381
100
-300
-300
-300
-300
-300
-300
-300
-300
-300
-300
-300
-300
-300
-300
100
90.1605
80.6447
71.7445
63.6943
56.6536
50.7017
45.8439
42.0263
39.1568
37.1275
35.8369
35.2068
35.1956
35.8039
37.075
39.088
41.9456
45.7564
50.6129
56.5691
63.6194
71.6838
80.6019
90.1384
100
-300
-300
-300
-300
-300
-300
-300
-300
-300
-300
100
89.6331
79.6076
70.2317
61.7526
54.3387
48.0737
42.9635
38.9509
35.9388
33.8132
32.4662
31.8151
31.8151
32.4662
33.8132
35.9388
38.9509
42.9635
48.0737
54.3387
61.7526
70.2317
79.6076
89.6331
100
-300
-300
-300
-300
-300
-300
-300
-300
-300
-300
-300
-300
-300
-300
100
89.6732
79.6858
70.3441
61.8937
54.5017
48.2514
43.1481
39.1353
36.1163
33.9783
32.6149
31.9448
31.9246
32.5556
33.8837
35.9925
38.9902
42.9909
48.0919
54.3499
61.759
70.235
79.609
89.6336
100
-300
-300
-300
-300
-300
-300
-300
-300
-300
-300
100
89.2578
78.8695
69.1543
60.3684
52.6863
46.1948
40.8998
36.7424
33.6215
31.4191
30.0236
29.349
29.349
30.0236
31.4191
33.6215
36.7424
40.8998
46.1948
52.6863
60.3684
69.1543
78.8695
89.2578
100
-300
-300
-300
-300
-300
-300
-300
-300
-300
-300
-300
-300
-300
-300
100
89.3277
79.0057
69.3502
60.6144
52.9708
46.505
41.2225
37.0647
33.932
31.7082
30.284
29.5761
29.5407
30.18
31.5424
33.7152
36.8106
40.9473
46.226
52.7053
60.379
69.1595
78.8716
89.2585
100
-300
-300
-300
-300
-300
-300
-300
-300
-300
-300
100
88.9878
78.3383
68.379
59.3724
51.4973
44.8429
39.4151
35.1534
31.9543
29.6968
28.2663
27.5748
27.5748
28.2663
29.6968
31.9543
35.1534
39.4151
44.8429
51.4973
59.3724
68.379
78.3383
88.9878
100
-300
-300
-300
-300
-300
-300
-300
-300
-300
-300
-300
-300
-300
-300
100
89.1063
78.5694
68.7114
59.79
51.9806
45.3702
39.964
35.7022
32.4833
30.1895
28.7102
27.962
27.9014
28.5327
29.9065
32.1132
35.2688
39.4948
44.8947
51.5284
59.3891
68.3867
78.3411
88.9885
100
-300
-300
-300
-300
-300
-300
-300
-300
-300
-300
100
88.7996
77.9681
67.8386
58.6781
50.6686
43.9007
38.3803
34.046
30.7924
28.4964
27.0416
26.3384
26.3384
27.0416
28.4964
30.7924
34.046
38.3803
43.9007
50.6686
58.6781
67.8386
77.9681
88.7996
100
-300
-300
-300
-300
-300
-300
-300
-300
-300
-300
-300
-300
-300
-300
100
88.9951
78.3495
68.3874
59.3681
51.4677
44.7733
39.2894
34.9556
31.6698
29.3141
27.7786
26.981
26.8802
27.4831
28.8434
31.0546
34.2355
38.5103
43.9842
50.7177
58.7035
67.8493
77.9711
88.7998
100
-300
-300
-300
-300
-300
-300
-300
-300
-300
-300
100
88.6724
77.718
67.4736
58.2092
50.1089
43.2643
37.6814
33.2981
30.0077
27.6859
26.2147
25.5035
25.5035
26.2147
27.6859
30.0077
33.2981
37.6814
43.2643
50.1089
58.2092
67.4736
77.718
88.6724
100
-300
-300
-300
-300
-300
-300
-300
-300
-300
-300
-300
-300
-300
-300
100
88.9864
78.3306
68.3554
59.3186
51.3949
44.6699
39.1473
34.7662
31.425
29.0074
27.4059
26.5419
26.3785
26.9267
28.2443
30.4284
33.6007
37.8872
43.3945
50.1834
58.2456
67.4868
77.72
88.6713
100
-300
-300
-300
-300
-300
-300
-300
-300
-300
-300
100
88.5892
77.5543
67.2346
57.9022
49.7425
42.8477
37.224
32.8086
29.4942
27.1553
25.6734
24.9571
24.9571
25.6734
27.1553
29.4942
32.8086
37.224
42.8477
49.7425
57.9022
67.2346
77.5543
88.5892
100
-300
-300
-300
-300
-300
-300
-300
-300
-300
-300
-300
-300
-300
-300
100
89.0797
78.5117
68.6136
59.6385
51.7571
45.0521
39.5254
35.116
31.7237
29.2353
27.5486
26.591
26.3326
26.7909
28.0296
30.1502
33.2776
37.5398
43.0439
49.8507
57.9509
67.248
77.5518
88.5844
100
-300
-300
-300
-300
-300
-300
-300
-300
-300
-300
100
88.5363
77.4504
67.0829
57.7074
49.51
42.5833
36.9336
32.4979
29.1682
26.8187
25.3299
24.6103
24.6103
25.3299
26.8187
29.1682
32.4979
36.9336
42.5833
49.51
57.7074
67.0829
77.4504
88.5363
100
-300
-300
-300
-300
-300
-300
-300
-300
-300
-300
-300
-300
-300
-300
100
89.282
78.9066
69.1817
60.3523
52.5824
45.9495
40.4528
36.0306
32.585
30.0081
28.2054
27.1143
26.7156
27.0368
28.1499
30.1627
33.2037
37.4031
42.8684
49.6597
57.7664
67.0898
77.4363
88.5235
100
-300
-300
-300
-300
-300
-300
-300
-300
-300
-300
100
88.5038
77.3864
66.9895
57.5874
49.3668
42.4206
36.7549
32.3066
28.9676
26.6114
25.1185
24.3969
24.3969
25.1185
26.6114
28.9676
32.3066
36.7549
42.4206
49.3668
57.5874
66.9895
77.3864
88.5038
100
-300
-300
-300
-300
-300
-300
-300
-300
-300
-300
-300
-300
-300
-300
100
89.6071
79.542
70.0987
61.5099
53.9293
47.4269
41.9971
37.5768
34.0708
31.3779
29.4153
28.1353
27.5346
27.6558
28.5831
30.4325
33.3375
37.4303
42.8187
49.5621
57.6482
66.9756
77.3471
88.4748
100
-300
-300
-300
-300
-300
-300
-300
-300
-300
-300
100
88.4844
77.3482
66.9338
57.5158
49.2813
42.3234
36.6482
32.1924
28.8478
26.4877
24.9922
24.2694
24.2694
24.9922
26.4877
28.8478
32.1924
36.6482
42.3234
49.2813
57.5158
66.9338
77.3482
88.4844
100
-300
-300
-300
-300
-300
-300
-300
-300
-300
-300
-300
-300
-300
-300
100
90.0734
80.4543
71.4179
63.1801
55.8802
49.5775
44.2586
39.8573
36.2799
33.4339
31.252
29.7085
28.824
28.6633
29.3276
30.9441
33.6525
37.5872
42.8561
49.5173
57.5568
66.8711
77.2585
88.4244
100
-300
-300
-300
-300
-300
-300
-300
-300
-300
-300
100
88.4731
77.326
66.9014
57.4742
49.2317
42.267
36.5863
32.1262
28.7784
26.4159
24.9191
24.1955
24.1955
24.9191
26.4159
28.7784
32.1262
36.5863
42.267
49.2317
57.4742
66.9014
77.326
88.4731
100
-300
-300
-300
-300
-300
-300
-300
-300
-300
-300
-300
-300
-300
-300
100
90.7011
81.6839
73.1992
65.4411
58.5305
52.5116
47.3596
43.0009
39.3406
36.2944
33.8157
31.9107
30.6363
30.089
30.3936
31.6921
34.1308
37.8462
42.9456
49.486
57.4525
66.7397
77.1422
88.3567
100
-300
-300
-300
-300
-300
-300
-300
-300
-300
-300
100
88.4668
77.3135
66.8832
57.4509
49.2038
42.2353
36.5515
32.089
28.7393
26.3756
24.8779
24.154
24.154
24.8779
26.3756
28.7393
32.089
36.5515
42.2353
49.2038
57.4509
66.8832
77.3135
88.4668
100
-300
-300
-300
-300
-300
-300
-300
-300
-300
-300
-300
-300
-300
-300
100
91.5089
83.268
75.4986
68.3681
61.9747
56.343
51.4314
47.1519
43.4013
40.0988
37.2232
34.8291
33.0284
31.964
31.792
32.6711
34.7544
38.1789
43.0505
49.4251
57.2884
66.5362
76.9613
88.2507
100
-300
-300
-300
-300
-300
-300
-300
-300
-300
-300
100
88.4633
77.3067
66.8732
57.4381
49.1885
42.2179
36.5324
32.0686
28.7179
26.3535
24.8554
24.1312
24.1312
24.8554
26.3535
28.7179
32.0686
36.5324
42.2179
49.1885
57.4381
66.8732
77.3067
88.4633
100
-300
-300
-300
-300
-300
-300
-300
-300
-300
-300
-300
-300
-300
-300
100
92.5095
85.2327
78.3566
72.0182
66.2895
61.1713
56.5987
52.4589
48.6242
45.0025
41.5986
38.5468
36.0465
34.3065
33.5211
33.866
35.4978
38.5505
43.1265
49.2813
57.0044
66.199
76.6625
88.0745
100
-300
-300
-300
-300
-300
-300
-300
-300
-300
-300
100
88.4615
77.3031
66.868
57.4313
49.1804
42.2087
36.5223
32.0578
28.7066
26.3418
24.8434
24.1192
24.1192
24.8434
26.3418
28.7066
32.0578
36.5223
42.2087
49.1804
57.4313
66.868
77.3031
88.4615
100
-300
-300
-300
-300
-300
-300
-300
-300
-300
-300
-300
-300
-300
-300
100
93.7057
87.5847
81.7863
76.4151
71.5153
67.0625
62.9631
59.065
55.1864
51.1827
47.0667
43.1252
39.7046
37.1026
35.5535
35.2425
36.3215
38.9151
43.1185
48.9872
56.5204
65.6397
76.1633
87.7752
100
-300
-300
-300
-300
-300
-300
-300
-300
-300
-300
100
88.4605
77.3012
66.8652
57.4278
49.1762
42.204
36.5171
32.0522
28.7007
26.3357
24.8372
24.1129
24.1129
24.8372
26.3357
28.7007
32.0522
36.5171
42.204
49.1762
57.4278
66.8652
77.3012
88.4605
100
-300
-300
-300
-300
-300
-300
-300
-300
-300
-300
-300
-300
-300
-300
100
95.0867
90.3038
85.7618
81.5329
77.6364
74.0264
70.5819
67.0991
63.2965
58.8741
53.7487
48.576
43.955
40.2851
37.8219
36.7395
37.1689
39.2151
42.9606
48.4605
55.7305
64.7296
75.3292
87.2566
100
-300
-300
-300
-300
-300
-300
-300
-300
-300
-300
100
88.46
77.3003
66.8639
57.426
49.1741
42.2016
36.5145
32.0494
28.6978
26.3327
24.8341
24.1098
24.1098
24.8341
26.3327
28.6978
32.0494
36.5145
42.2016
49.1741
57.426
66.8639
77.3003
88.46
100
-300
-300
-300
-300
-300
-300
-300
-300
-300
-300
-300
-300
-300
-300
100
96.6262
93.339
90.2104
87.284
84.5616
81.9891
79.436
76.6585
73.2347
68.4944
61.7479
54.8032
48.6437
43.709
40.2093
38.2666
37.9681
39.3861
42.5828
47.6098
54.5045
63.285
73.9326
86.3238
100
-300
-300
-300
-300
-300
-300
-300
-300
-300
-300
100
88.4598
77.2998
66.8632
57.4251
49.1731
42.2004
36.5132
32.048
28.6963
26.3312
24.8326
24.1083
24.1083
24.8326
26.3312
28.6963
32.048
36.5132
42.2004
49.1731
57.4251
66.8632
77.2998
88.4598
100
-300
-300
-300
-300
-300
-300
-300
-300
-300
-300
-300
-300
-300
-300
100
98.2822
96.6074
95.011
93.5126
92.1084
90.7596
89.3714
87.7389
85.3902
81.083
71.0291
61.4622
53.4439
47.1318
42.5491
39.7113
38.6412
39.3677
41.9248
46.3524
52.703
61.0609
71.5816
84.5256
100
-300
-300
-300
-300
-300
-300
-300
-300
-300
-300
100
88.4597
77.2996
66.8629
57.4247
49.1726
42.1999
36.5126
32.0474
28.6956
26.3305
24.8319
24.1076
24.1075
24.8319
26.3305
28.6956
32.0474
36.5126
42.1999
49.1726
57.4247
66.8629
77.2996
88.4597
100
-300
-300
-300
-300
-300
-300
-300
-300
-300
-300
-300
-300
-300
-300
100
100
100
100
100
100
100
100
100
100
100
80.6589
67.6441
57.7987
50.2288
44.649
40.9588
39.1202
39.1202
40.9587
44.6489
50.2286
57.7984
67.6437
80.6586
100
100
100
100
100
100
100
100
100
100
100
100
88.4596
77.2995
66.8627
57.4245
49.1724
42.1996
36.5123
32.0471
28.6953
26.3302
24.8316
24.1072
24.1072
24.8316
26.3302
28.6953
32.047
36.5123
42.1996
49.1724
57.4245
66.8627
77.2995
88.4596
100
-300
-300
-300
-300
-300
-300
-300
-300
-300
-300
-300
-300
-300
-300
-300
-300
-300
-300
-300
-300
-300
-300
-300
-300
100
84.5255
71.5814
61.0605
52.7025
46.3518
41.924
39.3668
38.6402
39.7103
42.548
47.1306
53.4427
61.461
71.0279
81.0819
85.3892
87.738
89.3706
90.7588
92.1077
93.512
95.0105
96.6071
98.282
100
100
88.4596
77.2994
66.8627
57.4245
49.1723
42.1995
36.5122
32.0469
28.6952
26.33
24.8314
24.1071
24.1071
24.8314
26.33
28.6952
32.0469
36.5122
42.1995
49.1723
57.4244
66.8626
77.2994
88.4596
100
-300
-300
-300
-300
-300
-300
-300
-300
-300
-300
-300
-300
-300
-300
-300
-300
-300
-300
-300
-300
-300
-300
-300
-300
100
86.3234
73.9318
63.2838
54.503
47.6079
42.5807
39.3838
37.9656
38.264
40.2066
43.7062
48.6409
54.8004
61.7451
68.4917
73.2321
76.656
79.4337
81.987
84.5597
87.2825
90.2092
93.3382
96.6258
100
100
88.4596
77.2994
66.8626
57.4244
49.1723
42.1994
36.5121
32.0469
28.6951
26.33
24.8313
24.107
24.107
24.8313
26.3299
28.6951
32.0468
36.5121
42.1994
49.1722
57.4244
66.8626
77.2994
88.4596
100
-300
-300
-300
-300
-300
-300
-300
-300
-300
-300
-300
-300
-300
-300
-300
-300
-300
-300
-300
-300
-300
-300
-300
-300
100
87.2557
75.3274
64.727
55.7272
48.4565
42.9561
39.2101
37.1635
36.7339
37.8161
40.2792
43.949
48.57
53.7428
58.8683
63.2909
67.0938
70.5769
74.0219
77.6324
81.5295
85.7592
90.302
95.0858
100
100
88.4596
77.2994
66.8626
57.4244
49.1722
42.1994
36.5121
32.0468
28.6951
26.3299
24.8313
24.107
24.1069
24.8313
26.3299
28.695
32.0468
36.512
42.1993
49.1721
57.4243
66.8625
77.2994
88.4596
100
-300
-300
-300
-300
-300
-300
-300
-300
-300
-300
-300
-300
-300
-300
-300
-300
-300
-300
-300
-300
-300
-300
-300
-300
100
87.7733
76.1596
65.6342
56.5134
48.9789
43.1091
38.9048
36.3105
35.231
35.5416
37.0905
39.6923
43.113
47.0546
51.1708
55.1749
59.054
62.9529
67.0532
71.5071
76.4082
81.781
87.581
93.7038
100
100
88.4596
77.2994
66.8626
57.4244
49.1722
42.1994
36.5121
32.0468
28.6951
26.3299
24.8313
24.1069
24.1069
24.8312
26.3298
28.695
32.0467
36.5119
42.1992
49.172
57.4242
66.8624
77.2993
88.4595
100
-300
-300
-300
-300
-300
-300
-300
-300
-300
-300
-300
-300
-300
-300
-300
-300
-300
-300
-300
-300
-300
-300
-300
-300
100
88.0707
76.6551
66.1882
56.9906
49.2648
43.1078
38.53
35.4759
33.8431
33.4974
34.2824
36.0222
38.5225
41.5745
44.9789
48.6014
52.4372
56.5784
61.1528
66.2732
72.0046
78.346
85.2254
92.5058
100
100
88.4596
77.2994
66.8626
57.4244
49.1722
42.1994
36.5121
32.0468
28.6951
26.3299
24.8313
24.1069
24.1068
24.8312
26.3297
28.6948
32.0465
36.5117
42.199
49.1718
57.424
66.8623
77.2992
88.4595
100
-300
-300
-300
-300
-300
-300
-300
-300
-300
-300
-300
-300
-300
-300
-300
-300
-300
-300
-300
-300
-300
-300
-300
-300
100
88.2434
76.9469
66.5153
57.2615
49.3931
43.0142
38.1391
34.7119
32.6266
31.7461
31.9173
32.9813
34.782
37.1766
40.0532
43.3571
47.1098
51.392
56.3072
61.9432
68.3416
75.478
83.2539
91.5017
100
100
88.4596
77.2994
66.8626
57.4244
49.1722
42.1994
36.5121
32.0468
28.695
26.3299
24.8312
24.1068
24.1067
24.831
26.3295
28.6945
32.0462
36.5113
42.1986
49.1714
57.4236
66.8619
77.2989
88.4593
100
-300
-300
-300
-300
-300
-300
-300
-300
-300
-300
-300
-300
-300
-300
-300
-300
-300
-300
-300
-300
-300
-300
-300
-300
100
88.3429
77.1151
66.7002
57.4018
49.4257
42.8771
37.7712
34.0508
31.6083
30.3072
30.0009
30.5475
31.822
33.7279
36.2083
39.2573
42.9215
47.2854
52.444
58.4711
65.3912
73.1604
81.6573
90.6875
100
100
88.4596
77.2994
66.8626
57.4244
49.1722
42.1994
36.512
32.0468
28.695
26.3298
24.8311
24.1066
24.1065
24.8307
26.3291
28.694
32.0455
36.5106
42.1977
49.1705
57.4228
66.8612
77.2984
88.459
100
-300
-300
-300
-300
-300
-300
-300
-300
-300
-300
-300
-300
-300
-300
-300
-300
-300
-300
-300
-300
-300
-300
-300
-300
100
88.399
77.2087
66.7985
57.4638
49.4065
42.7304
37.4496
33.5056
30.7903
29.169
28.5018
28.6611
29.5457
31.0909
33.276
36.1271
39.7116
44.1225
49.4535
55.7712
63.0887
71.3468
80.4055
90.0486
100
100
88.4596
77.2994
66.8626
57.4244
49.1722
42.1994
36.512
32.0467
28.6949
26.3297
24.8309
24.1064
24.1061
24.8301
26.3283
28.693
32.0443
36.5091
42.1961
49.1688
57.4212
66.8598
77.2973
88.4585
100
-300
-300
-300
-300
-300
-300
-300
-300
-300
-300
-300
-300
-300
-300
-300
-300
-300
-300
-300
-300
-300
-300
-300
-300
100
88.4294
77.258
66.8459
57.4819
49.3642
42.5943
37.1844
33.0751
30.1578
28.3
27.3674
27.2438
27.8448
29.1277
31.0962
33.7981
37.3169
41.7542
47.2057
53.7347
61.3468
69.9717
79.455
89.5629
100
100
88.4596
77.2994
66.8626
57.4244
49.1722
42.1994
36.512
32.0466
28.6948
26.3295
24.8306
24.1059
24.1053
24.8291
26.3269
28.6911
32.042
36.5064
42.1931
49.1657
57.4181
66.8572
77.2954
88.4575
100
-300
-300
-300
-300
-300
-300
-300
-300
-300
-300
-300
-300
-300
-300
-300
-300
-300
-300
-300
-300
-300
-300
-300
-300
100
88.4447
77.2814
66.8641
57.4772
49.3154
42.4781
36.9758
32.7478
29.6856
27.6581
26.5359
26.2106
26.6099
27.7061
29.5189
32.1116
35.5793
40.0311
45.5655
52.2446
60.0693
68.9613
78.7556
89.2053
100
100
88.4596
77.2994
66.8626
57.4244
49.1722
42.1993
36.5119
32.0465
28.6946
26.3291
24.83
24.1049
24.104
24.8271
26.3243
28.6878
32.0378
36.5014
42.1876
49.1599
57.4126
66.8524
77.2919
88.4556
100
-300
-300
-300
-300
-300
-300
-300
-300
-300
-300
-300
-300
-300
-300
-300
-300
-300
-300
-300
-300
-300
-300
-300
-300
100
88.4508
77.2894
66.8658
57.4612
49.2681
42.3838
36.8172
32.5068
29.3438
27.1985
25.9446
25.4795
25.7389
26.7052
28.4091
30.9241
34.354
38.8134
44.4037
51.1868
59.1606
68.2416
78.2568
88.9501
100
100
88.4596
77.2994
66.8626
57.4244
49.1721
42.1992
36.5118
32.0463
28.6942
26.3284
24.829
24.1034
24.1017
24.8238
26.3197
28.6818
32.0304
36.4927
42.1778
49.1497
57.4027
66.8438
77.2854
88.4522
100
-300
-300
-300
-300
-300
-300
-300
-300
-300
-300
-300
-300
-300
-300
-300
-300
-300
-300
-300
-300
-300
-300
-300
-300
100
88.451
77.2874
66.857
57.439
49.2241
42.308
36.6985
32.3329
29.1025
26.8782
25.5358
24.9766
25.1417
26.0202
27.6499
30.1115
33.5144
37.9776
43.6049
50.4582
58.5338
67.7444
77.912
88.7735
100
100
88.4596
77.2994
66.8626
57.4243
49.1721
42.1991
36.5116
32.0459
28.6935
26.3274
24.8273
24.1007
24.0977
24.8182
26.312
28.6717
32.0176
36.4775
42.1607
49.1317
57.3853
66.8285
77.2741
88.4461
100
-300
-300
-300
-300
-300
-300
-300
-300
-300
-300
-300
-300
-300
-300
-300
-300
-300
-300
-300
-300
-300
-300
-300
-300
100
88.4464
77.2772
66.8392
57.4106
49.1808
42.2442
36.6075
32.2072
28.9339
26.659
25.2597
24.6396
24.7433
25.5642
27.1451
29.571
32.9555
37.4207
43.0717
49.9712
58.1143
67.4114
77.6808
88.6551
100
100
88.4596
77.2994
66.8625
57.4243
49.172
42.1989
36.5112
32.0453
28.6925
26.3256
24.8245
24.0964
24.0913
24.8089
26.2993
28.6548
31.9964
36.452
42.1319
49.1012
57.3554
66.8023
77.2545
88.4356
100
-300
-300
-300
-300
-300
-300
-300
-300
-300
-300
-300
-300
-300
-300
-300
-300
-300
-300
-300
-300
-300
-300
-300
-300
100
88.4363
77.2573
66.81
57.3721
49.1323
42.1837
36.5317
32.1117
28.8137
26.509
25.0753
24.4179
24.4835
25.2684
26.8183
29.2215
32.5941
37.0601
42.7262
49.6553
57.8419
67.1949
77.5305
88.5781
100
100
88.4596
77.2994
66.8625
57.4242
49.1718
42.1986
36.5107
32.0443
28.6908
26.3229
24.8201
24.0896
24.0811
24.7941
26.2787
28.6275
31.9617
36.4101
42.0842
49.0503
57.3053
66.7581
77.2213
88.4177
100
-300
-300
-300
-300
-300
-300
-300
-300
-300
-300
-300
-300
-300
-300
-300
-300
-300
-300
-300
-300
-300
-300
-300
-300
100
88.4184
77.2234
66.7632
57.3159
49.0693
42.1153
36.4576
32.0299
28.7212
26.402
24.9506
24.2727
24.3166
25.0805
26.612
29.0013
32.3667
36.8333
42.5088
49.4563
57.6702
67.0584
77.4356
88.5295
100
100
88.4596
77.2993
66.8624
57.4241
49.1716
42.1982
36.5099
32.0429
28.6884
26.3188
24.8134
24.0791
24.0653
24.7712
26.2466
28.5845
31.9067
36.3432
42.0072
48.9675
57.2232
66.6849
77.166
88.3879
100
-300
-300
-300
-300
-300
-300
-300
-300
-300
-300
-300
-300
-300
-300
-300
-300
-300
-300
-300
-300
-300
-300
-300
-300
100
88.3884
77.1674
66.6882
57.2296
48.9787
42.0253
36.3706
31.9459
28.6382
26.3172
24.8606
24.1747
24.2087
24.9621
26.4839
28.8658
32.2272
36.6945
42.3758
49.3346
57.5651
66.9748
77.3775
88.4997
100
100
88.4595
77.2993
66.8624
57.4239
49.1713
42.1976
36.5087
32.0408
28.6847
26.3127
24.8035
24.0635
24.0416
24.7366
26.198
28.5189
31.8219
36.239
41.8861
48.8357
57.0911
66.5661
77.0754
88.3387
100
-300
-300
-300
-300
-300
-300
-300
-300
-300
-300
-300
-300
-300
-300
-300
-300
-300
-300
-300
-300
-300
-300
-300
-300
100
88.339
77.0763
66.5681
57.0949
48.8422
41.8964
36.2544
31.8438
28.5488
26.2373
24.7864
24.1025
24.1356
24.8861
26.4045
28.7835
32.1434
36.6115
42.2966
49.2622
57.5026
66.9251
77.3429
88.4819
100
100
88.4595
77.2992
66.8622
57.4237
49.1708
42.1967
36.507
32.0378
28.6796
26.304
24.7893
24.0411
24.0074
24.6862
26.1265
28.4214
31.6947
36.081
41.7002
48.6309
56.8829
66.3764
76.9292
88.2587
100
-300
-300
-300
-300
-300
-300
-300
-300
-300
-300
-300
-300
-300
-300
-300
-300
-300
-300
-300
-300
-300
-300
-300
-300
100
88.2589
76.9297
66.3775
56.885
48.6344
41.7058
36.0894
31.7067
28.4376
26.1478
24.7131
24.0403
24.0801
24.834
26.3537
28.7331
32.0935
36.5628
42.2504
49.2201
57.4664
66.8963
77.323
88.4717
100
100
88.4595
77.2992
66.8621
57.4233
49.1701
42.1955
36.5048
32.0338
28.6725
26.292
24.7696
24.0099
23.9594
24.615
26.0245
28.281
31.5095
35.8477
41.4219
48.3192
56.5608
66.0778
76.6954
88.1292
100
-300
-300
-300
-300
-300
-300
-300
-300
-300
-300
-300
-300
-300
-300
-300
-300
-300
-300
-300
-300
-300
-300
-300
-300
100
88.1294
76.6957
66.0784
56.5619
48.3211
41.4249
35.8522
31.5158
28.2896
26.0358
24.6292
23.9768
24.0305
24.7932
26.3182
28.7007
32.0632
36.5343
42.2238
49.1962
57.4459
66.8801
77.3117
88.4659
100
100
88.4595
77.2991
66.8619
57.4229
49.1693
42.1939
36.5018
32.0285
28.6632
26.2761
24.7434
23.9679
23.8944
24.5177
25.8839
28.0853
31.2479
35.5133
41.0158
47.8555
56.0711
65.6135
76.3239
87.92
100
-300
-300
-300
-300
-300
-300
-300
-300
-300
-300
-300
-300
-300
-300
-300
-300
-300
-300
-300
-300
-300
-300
-300
-300
100
87.9201
76.3241
65.6139
56.0717
47.8565
41.0174
35.5156
31.2511
28.0897
25.8897
24.525
23.9033
23.9785
24.7555
26.2896
28.6777
32.0436
36.517
42.2085
49.1828
57.4346
66.8712
77.3055
88.4628
100
100
88.4594
77.2989
66.8616
57.4224
49.1683
42.1919
36.4981
32.0217
28.6512
26.2557
24.7095
23.9134
23.8094
24.3893
25.6965
27.8213
30.89
35.0481
40.4395
47.1818
55.3399
64.8986
75.7335
87.5784
100
-300
-300
-300
-300
-300
-300
-300
-300
-300
-300
-300
-300
-300
-300
-300
-300
-300
-300
-300
-300
-300
-300
-300
-300
100
87.5784
75.7336
64.8988
55.3402
47.1823
40.4403
35.0493
30.8916
27.8235
25.6994
24.3929
23.8138
23.9186
24.7155
26.2624
28.6585
32.0293
36.5057
42.1992
49.175
57.4282
66.8663
77.3022
88.4611
100
100
88.4594
77.2988
66.8613
57.4218
49.167
42.1894
36.4936
32.0134
28.6365
26.2304
24.6673
23.8451
23.7021
24.2259
25.4556
27.4778
30.4172
34.4221
39.6462
46.2279
54.2682
63.8071
74.7892
87.0065
100
-300
-300
-300
-300
-300
-300
-300
-300
-300
-300
-300
-300
-300
-300
-300
-300
-300
-300
-300
-300
-300
-300
-300
-300
100
87.0065
74.7893
63.8072
54.2684
46.2281
39.6466
34.4227
30.418
27.4789
25.457
24.2277
23.7043
23.8477
24.6703
26.2337
28.6401
32.0171
36.4973
42.193
49.1703
57.4246
66.8636
77.3004
88.4602
100
100
88.4593
77.2987
66.861
57.4211
49.1656
42.1866
36.4882
32.0036
28.6191
26.2003
24.6168
23.7628
23.5718
24.0259
25.1576
27.0476
29.8158
33.6102
38.5914
44.9178
52.7332
62.1555
73.2583
86.0027
100
-300
-300
-300
-300
-300
-300
-300
-300
-300
-300
-300
-300
-300
-300
-300
-300
-300
-300
-300
-300
-300
-300
-300
-300
100
86.0027
73.2583
62.1555
52.7333
44.918
38.5916
33.6105
29.8162
27.0481
25.1583
24.0267
23.5729
23.764
24.6182
26.2019
28.6208
32.0053
36.49
42.1883
49.1671
57.4224
66.8621
77.2994
88.4597
100
100
88.4592
77.2985
66.8606
57.4203
49.164
42.1835
36.4822
31.9925
28.5992
26.1658
24.5586
23.6674
23.4199
23.7907
24.8039
26.5307
29.0825
32.6008
37.2458
43.187
50.6029
59.696
70.735
84.096
100
-300
-300
-300
-300
-300
-300
-300
-300
-300
-300
-300
-300
-300
-300
-300
-300
-300
-300
-300
-300
-300
-300
-300
-300
100
84.096
70.735
59.696
50.6029
43.1871
37.2459
32.601
29.0827
26.5309
24.8042
23.7911
23.4204
23.6679
24.5593
26.1665
28.6
31.9933
36.483
42.1843
49.1647
57.4209
66.8611
77.2989
88.4594
100
100
88.4592
77.2984
66.8603
57.4196
49.1624
42.1802
36.4758
31.9805
28.5775
26.1279
24.4942
23.5613
23.2498
23.5256
24.4017
25.9369
28.2288
31.4052
35.6135
41.0147
47.7873
56.1631
66.5565
80.0187
100
100
100
100
100
100
100
100
100
100
100
100
100
100
100
100
100
100
100
100
100
100
100
100
100
100
80.0187
66.5565
56.1631
47.7873
41.0148
35.6135
31.4052
28.2289
25.937
24.4019
23.5257
23.25
23.5615
24.4945
26.1282
28.5779
31.9808
36.4761
42.1805
49.1627
57.4198
66.8606
77.2986
88.4593
100
100
88.4592
77.2984
66.8602
57.419
49.1609
42.177
36.4693
31.9681
28.5549
26.088
24.4261
23.4482
23.0675
23.2396
23.9648
25.2865
27.2841
30.0642
33.7497
38.4685
44.346
51.4999
60.0239
69.8624
80.0187
84.0959
86.0027
87.0064
87.5783
87.92
88.1291
88.2584
88.3381
88.3868
88.4156
88.4316
88.4387
88.4387
88.4316
88.4156
88.3868
88.3381
88.2584
88.1291
87.92
87.5783
87.0064
86.0027
84.0959
80.0187
69.8624
60.0239
51.4999
44.346
38.4685
33.7497
30.0642
27.2841
25.2865
23.9649
23.2396
23.0676
23.4483
24.4262
26.0881
28.5551
31.9683
36.4695
42.1771
49.1611
57.4191
66.8603
77.2985
88.4593
100
100
88.4594
77.2986
66.8604
57.4189
49.16
42.1743
36.4634
31.9563
28.5326
26.048
24.3571
23.3329
22.8806
22.9448
23.5121
24.6085
26.2927
28.6463
31.7608
35.7227
40.5937
46.382
52.981
60.0239
66.5565
70.735
73.2583
74.7892
75.7335
76.3238
76.6952
76.9287
77.0744
77.1639
77.2173
77.247
77.2602
77.2602
77.247
77.2173
77.1639
77.0744
76.9287
76.6952
76.3238
75.7335
74.7892
73.2583
70.735
66.5565
60.0239
52.981
46.382
40.5937
35.7227
31.7608
28.6463
26.2927
24.6085
23.5122
22.9448
22.8807
23.333
24.3572
26.0481
28.5327
31.9563
36.4635
42.1744
49.1601
57.4189
66.8604
77.2987
88.4594
100
100
88.4598
77.2994
66.8613
57.4197
49.1602
42.173
36.459
31.9461
28.5124
26.0105
24.291
23.2212
22.698
22.6551
23.0651
23.9366
25.3068
27.2322
29.774
32.9818
36.8708
41.3914
46.382
51.4999
56.1631
59.6959
62.1554
63.807
64.8986
65.6134
66.0775
66.3757
66.5647
66.6821
66.7527
66.7921
66.8097
66.8097
66.7921
66.7527
66.6821
66.5647
66.3757
66.0775
65.6134
64.8986
63.807
62.1554
59.6959
56.1631
51.4999
46.382
41.3914
36.8708
32.9818
29.774
27.2322
25.3068
23.9366
23.0652
22.6551
22.698
23.2212
24.291
26.0105
28.5124
31.9462
36.4591
42.1731
49.1602
57.4197
66.8613
77.2994
88.4598
100
100
88.4607
77.301
66.8636
57.4223
49.1626
42.1743
36.4577
31.9396
28.4964
25.9783
24.2319
23.119
22.5287
22.3844
22.6453
23.3034
24.3764
25.8981
27.9044
30.4183
33.4293
36.8708
40.5937
44.346
47.7873
50.6029
52.7332
54.2682
55.3398
56.0709
56.5604
56.8821
57.0895
57.2199
57.2991
57.3436
57.3635
57.3635
57.3436
57.2991
57.2199
57.0895
56.8821
56.5604
56.0709
55.3398
54.2682
52.7332
50.6029
47.7873
44.346
40.5937
36.8708
33.4293
30.4183
27.9044
25.8981
24.3764
23.3034
22.6453
22.3844
22.5287
23.119
24.2319
25.9783
28.4964
31.9396
36.4577
42.1743
49.1626
57.4223
66.8636
77.3011
88.4607
100
100
88.4624
77.3045
66.8685
57.4283
49.1691
42.1804
36.4619
31.9395
28.488
25.9554
24.1848
23.0329
22.3818
22.1456
22.2715
22.7369
23.5428
24.7039
26.2374
28.1492
30.4183
32.9817
35.7227
38.4685
41.0147
43.187
44.9178
46.2278
47.1817
47.8553
48.3188
48.63
48.834
48.9641
49.0437
49.0889
49.1092
49.1092
49.0889
49.0437
48.9641
48.834
48.63
48.3188
47.8553
47.1817
46.2278
44.9178
43.187
41.0147
38.4685
35.7227
32.9818
30.4183
28.1492
26.2374
24.7039
23.5428
22.7369
22.2715
22.1456
22.3818
23.0329
24.1849
25.9554
28.488
31.9395
36.4619
42.1804
49.1691
57.4283
66.8685
77.3045
88.4624
100
100
88.4658
77.3112
66.8781
57.4404
49.183
42.1951
36.4758
31.9503
28.4923
25.9474
24.1561
22.9704
22.2665
21.9505
21.9595
22.2587
22.8351
23.6892
24.8247
26.2374
27.9044
29.774
31.7608
33.7497
35.6135
37.2458
38.5914
39.6462
40.4395
41.0156
41.4215
41.6994
41.8844
42.0039
42.0779
42.1201
42.1391
42.1391
42.1201
42.0779
42.0039
41.8844
41.6994
41.4215
41.0156
40.4395
39.6462
38.5914
37.2458
35.6135
33.7497
31.7608
29.774
27.9044
26.2374
24.8247
23.6892
22.8351
22.2587
21.9595
21.9505
22.2665
22.9704
24.1561
25.9474
28.4923
31.9503
36.4758
42.1951
49.183
57.4404
66.8781
77.3112
88.4659
100
100
88.4721
77.3235
66.896
57.4632
49.2097
42.2245
36.5063
31.9796
28.517
25.9627
24.1545
22.9409
22.1932
21.8109
21.7228
21.8844
22.2721
22.8755
23.6892
24.7039
25.8981
27.2322
28.6463
30.0642
31.4052
32.6008
33.6102
34.4221
35.048
35.5132
35.8474
36.0802