# vtk DataFile Version 2.0
LBE two cylinders
ASCII
DATASET STRUCTURED_POINTS
DIMENSIONS 76 76 1
ASPECT_RATIO 1 1 1
ORIGIN 0 0 0
POINT_DATA 5776
SCALARS temp double 1
LOOKUP_TABLE default
100
100
100
100
100
100
100
100
100
100
100
100
100
100
100
100
100
100
100
100
100
100
100
100
100
100
-300
-300
-300
-300
-300
-300
-300
-300
-300
-300
-300
-300
-300
-300
100
100
100
100
100
100
100
100
100
100
100
100
100
100
100
100
100
100
100
100
100
100
100
100
100
100
-300
-300
-300
-300
-300
-300
-300
-300
-300
-300
100
98.9546
97.9318
96.9527
96.0365
95.199
94.4526
93.8061
93.2651
92.8322
92.5083
92.293
92.1856
92.1856
92.293
92.5083
92.8322
93.2651
93.8061
94.4526
95.199
96.0365
96.9527
97.9318
98.9546
100
-300
-300
-300
-300
-300
-300
-300
-300
-300
-300
-300
-300
-300
-300
100
98.9574
97.9373
96.9606
96.0465
95.2108
94.4657
93.8201
93.2794
92.8465
92.5222
92.3061
92.1977
92.1965
92.3026
92.5165
92.8391
93.2707
93.8107
94.4561
95.2016
96.0384
96.9541
97.9326
98.955
100
-300
-300
-300
-300
-300
-300
-300
-300
-300
-300
100
97.9309
95.9063
93.9684
92.1548
90.4971
89.0197
87.7401
86.6692
85.8124
85.1713
84.7451
84.5326
84.5326
84.7451
85.1713
85.8124
86.6692
87.7401
89.0197
90.4971
92.1548
93.9684
95.9063
97.9309
100
-300
-300
-300
-300
-300
-300
-300
-300
-300
-300
-300
-300
-300
-300
100
97.9371
95.9185
93.9861
92.1773
90.5235
89.0491
87.7715
86.7015
85.8446
85.2025
84.7746
84.5598
84.5571
84.7667
85.1898
85.8279
86.6819
87.7503
89.0276
90.503
92.1591
93.9714
95.9082
97.9318
100
-300
-300
-300
-300
-300
-300
-300
-300
-300
-300
100
96.9489
93.9636
91.106
88.4317
85.9873
83.8088
81.922
80.3429
79.0795
78.1341
77.5057
77.1923
77.1923
77.5057
78.1341
79.0795
80.3429
81.922
83.8088
85.9873
88.4317
91.106
93.9636
96.9489
100
-300
-300
-300
-300
-300
-300
-300
-300
-300
-300
-300
-300
-300
-300
100
96.9601
93.9854
91.1376
88.472
86.0345
83.8614
81.9781
80.4005
79.137
78.1899
77.5585
77.2409
77.2361
77.5442
78.1671
79.1072
80.3656
81.9401
83.8229
85.9979
88.4394
91.1113
93.9668
96.9505
100
-300
-300
-300
-300
-300
-300
-300
-300
-300
-300
100
96.0266
92.1386
88.4172
84.9344
81.751
78.914
76.4568
74.4003
72.7549
71.5238
70.7055
70.2973
70.2973
70.7055
71.5238
72.7549
74.4003
76.4568
78.914
81.751
84.9344
88.4172
92.1386
96.0266
100
-300
-300
-300
-300
-300
-300
-300
-300
-300
-300
-300
-300
-300
-300
100
96.045
92.1749
88.4697
85.0013
81.8295
79.0013
76.5499
74.4961
72.8505
71.6165
70.7931
70.3781
70.37
70.7693
71.5786
72.8009
74.4378
76.4867
78.9372
81.7685
84.9471
88.4259
92.144
96.0291
100
-300
-300
-300
-300
-300
-300
-300
-300
-300
-300
100
95.1779
90.4597
85.9434
81.7169
77.8536
74.4107
71.4288
68.9331
66.9364
65.4423
64.4493
63.9539
63.9539
64.4493
65.4423
66.9364
68.9331
71.4288
74.4107
77.8536
81.7169
85.9434
90.4597
95.1779
100
-300
-300
-300
-300
-300
-300
-300
-300
-300
-300
-300
-300
-300
-300
100
95.2076
90.5178
86.0277
81.8241
77.9796
74.5509
71.5782
69.0869
67.0898
65.5911
64.5899
64.0836
64.0706
64.5517
65.5302
67.0099
68.9932
71.4766
74.4477
77.8814
81.737
85.9572
90.4682
95.182
100
-300
-300
-300
-300
-300
-300
-300
-300
-300
-300
100
94.4133
88.9468
83.7144
78.8177
74.3418
70.3529
66.8982
64.0068
61.6935
59.9626
58.8121
58.2382
58.2382
58.8121
59.9626
61.6935
64.0068
66.8982
70.3529
74.3418
78.8177
83.7144
88.9468
94.4133
100
-300
-300
-300
-300
-300
-300
-300
-300
-300
-300
-300
-300
-300
-300
100
94.4597
89.0379
83.8465
78.9856
74.5392
70.5727
67.1325
64.248
61.9342
60.196
59.0326
58.4415
58.421
58.9725
60.1001
61.8085
64.1006
66.9726
70.4104
74.3848
78.8487
83.7355
88.9599
94.4195
100
-300
-300
-300
-300
-300
-300
-300
-300
-300
-300
100
93.7384
87.6116
81.7472
76.2589
71.2424
66.7717
62.8997
59.6591
57.0664
55.1264
53.8369
53.1938
53.1938
53.8369
55.1264
57.0664
59.6591
62.8997
66.7717
71.2424
76.2589
81.7472
87.6116
93.7384
100
-300
-300
-300
-300
-300
-300
-300
-300
-300
-300
-300
-300
-300
-300
100
93.8098
87.7515
81.9501
76.5171
71.5459
67.1096
63.2601
60.0301
57.4366
55.4856
54.1763
53.5064
53.4748
54.0834
55.3374
57.2426
59.8025
63.0133
66.8592
71.3076
76.3057
81.7789
87.6312
93.7477
100
-300
-300
-300
-300
-300
-300
-300
-300
-300
-300
100
93.155
86.4573
80.0465
74.0469
68.563
63.6758
59.4431
55.9006
53.0664
50.9457
49.5361
48.833
48.833
49.5361
50.9457
53.0664
55.9006
59.4431
63.6758
68.563
74.0469
80.0465
86.4573
93.155
100
-300
-300
-300
-300
-300
-300
-300
-300
-300
-300
-300
-300
-300
-300
100
93.2627
86.6685
80.3528
74.4366
69.0214
64.1862
59.9876
56.4613
53.626
51.4885
50.0489
49.3053
49.2573
49.908
51.2636
53.3314
56.1158
59.6132
63.8064
68.6599
74.1162
80.0933
86.486
93.1685
100
-300
-300
-300
-300
-300
-300
-300
-300
-300
-300
100
92.6609
85.4799
78.6063
72.1737
66.294
61.0542
56.516
52.7179
49.6793
47.4055
45.8943
45.1405
45.1405
45.8943
47.4055
49.6793
52.7179
56.516
61.0542
66.294
72.1737
78.6063
85.4799
92.6609
100
-300
-300
-300
-300
-300
-300
-300
-300
-300
-300
-300
-300
-300
-300
100
92.8206
85.793
79.0607
72.752
66.9744
61.8119
57.3246
53.5506
50.5104
48.2118
46.6558
45.8415
45.7698
46.4453
47.8759
50.0707
53.0351
56.7659
61.2453
66.4353
72.2741
78.6738
85.521
92.6803
100
-300
-300
-300
-300
-300
-300
-300
-300
-300
-300
100
92.2511
84.669
77.4116
70.6198
64.4118
58.8795
54.0879
50.0778
46.8695
44.4688
42.8732
42.0774
42.0774
42.8732
44.4688
46.8695
50.0778
54.0879
58.8795
64.4118
70.6198
77.4116
84.669
92.2511
100
-300
-300
-300
-300
-300
-300
-300
-300
-300
-300
-300
-300
-300
-300
100
92.4839
85.1255
78.0741
71.4631
65.4043
59.9852
55.2683
51.2936
48.0832
45.6462
43.985
43.1002
42.9948
43.6756
45.1527
47.4373
50.5366
54.4481
59.1536
64.6135
70.7622
77.5067
84.7266
92.2781
100
-300
-300
-300
-300
-300
-300
-300
-300
-300
-300
100
91.918
84.01
76.4407
69.357
62.8822
57.1121
52.1146
47.9322
44.5861
42.0823
40.4182
39.5881
39.5881
40.4182
42.0823
44.5861
47.9322
52.1146
57.1121
62.8822
69.357
76.4407
84.01
91.918
100
-300
-300
-300
-300
-300
-300
-300
-300
-300
-300
-300
-300
-300
-300
100
92.2515
84.6641
77.3902
70.566
64.3057
58.6986
53.8088
49.6778
46.3289
43.7727
42.0138
41.0553
40.9028
41.5663
43.0591
45.3951
48.5838
52.624
57.4978
63.164
69.5545
76.5715
84.0886
91.9546
100
-300
-300
-300
-300
-300
-300
-300
-300
-300
-300
100
91.6528
83.4853
75.6676
68.3515
61.6642
55.7048
50.5435
46.2239
42.768
40.1821
38.4634
37.6061
37.6061
38.4634
40.1821
42.768
46.2239
50.5435
55.7048
61.6642
68.3515
75.6676
83.4853
91.6528
100
-300
-300
-300
-300
-300
-300
-300
-300
-300
-300
-300
-300
-300
-300
100
92.1225
84.4067
77.0056
70.0559
63.672
57.9435
52.935
48.6887
45.2292
42.5691
40.7157
39.6755
39.4583
40.0782
41.5529
43.9
47.1321
51.25
56.2364
62.0497
68.6191
75.8429
83.5896
91.701
100
-300
-300
-300
-300
-300
-300
-300
-300
-300
-300
100
91.4459
83.0759
75.0644
67.567
60.714
54.607
49.3177
44.8911
41.3497
38.6997
36.9384
36.0599
36.0599
36.9384
38.6997
41.3497
44.8911
49.3177
54.607
60.714
67.567
75.0644
83.0759
91.4459
100
-300
-300
-300
-300
-300
-300
-300
-300
-300
-300
-300
-300
-300
-300
100
92.0964
84.3523
76.9186
69.93
63.4991
57.714
52.6386
48.315
44.7689
42.0155
40.0654
38.9303
38.6254
39.1708
40.5898
42.9052
46.1335
50.2786
55.3245
61.2293
67.9205
75.293
83.2101
91.5073
100
-300
-300
-300
-300
-300
-300
-300
-300
-300
-300
100
91.2877
82.7629
74.6033
66.9673
59.9876
53.7676
48.3806
43.8722
40.2653
37.5665
35.7726
34.8779
34.8779
35.7726
37.5665
40.2653
43.8722
48.3806
53.7676
59.9876
66.9673
74.6033
82.7629
91.2877
100
-300
-300
-300
-300
-300
-300
-300
-300
-300
-300
-300
-300
-300
-300
100
92.1736
84.5018
77.1305
70.1897
63.7881
58.0104
52.9181
48.5524
44.94
42.0987
40.0442
38.7945
38.3725
38.8064
40.1273
42.3645
45.54
49.6617
54.7155
60.6601
67.4217
74.892
82.9292
91.3627
100
-300
-300
-300
-300
-300
-300
-300
-300
-300
-300
100
91.1692
82.5285
74.2578
66.5179
59.4434
53.1388
47.6786
43.1089
39.453
36.7174
34.8993
33.9924
33.9924
34.8993
36.7174
39.453
43.1089
47.6786
53.1388
59.4434
66.5179
74.2578
82.5285
91.1692
100
-300
-300
-300
-300
-300
-300
-300
-300
-300
-300
-300
-300
-300
-300
100
92.3559
84.8585
77.6461
70.8414
64.5464
58.8404
53.7807
49.4064
45.7443
42.8157
40.6422
39.2507
38.6747
38.9529
40.1268
42.2345
45.3052
49.3516
54.3629
60.2988
67.0845
74.6089
82.7254
91.256
100
-300
-300
-300
-300
-300
-300
-300
-300
-300
-300
100
91.0821
82.3563
74.0042
66.188
59.0437
52.6771
47.1631
42.5484
38.8565
36.0941
34.258
33.3422
33.3422
34.258
36.0941
38.8565
42.5484
47.1631
52.6771
59.0437
66.188
74.0042
82.3563
91.0821
100
-300
-300
-300
-300
-300
-300
-300
-300
-300
-300
-300
-300
-300
-300
100
92.646
85.428
78.4738
71.8961
65.7877
60.2199
55.2434
50.8933
47.1955
44.1747
41.8604
40.2911
39.5143
39.5838
40.5542
42.4753
45.3849
49.3022
54.2205
60.1013
66.8697
74.4117
82.5755
91.1753
100
-300
-300
-300
-300
-300
-300
-300
-300
-300
-300
100
91.0195
82.2324
73.8216
65.9505
58.7561
52.3448
46.7921
42.1451
38.4273
35.6454
33.7965
32.8742
32.8742
33.7965
35.6454
38.4273
42.1451
46.7921
52.3448
58.7561
65.9505
73.8216
82.2324
91.0195
100
-300
-300
-300
-300
-300
-300
-300
-300
-300
-300
-300
-300
-300
-300
100
93.0472
86.2169
79.624
73.3683
67.5308
62.1716
57.332
53.0401
49.319
46.196
43.7102
41.916
40.8807
40.6775
41.3789
43.0488
45.736
49.4674
54.2414
60.0223
66.7357
74.2654
82.4542
91.1071
100
-300
-300
-300
-300
-300
-300
-300
-300
-300
-300
100
90.9753
82.1449
73.6928
65.783
58.5532
52.1103
46.5303
41.8605
38.1244
35.3289
33.4708
32.5441
32.5441
33.4708
35.3289
38.1244
41.8605
46.5303
52.1103
58.5532
65.783
73.6928
82.1449
90.9753
100
-300
-300
-300
-300
-300
-300
-300
-300
-300
-300
-300
-300
-300
-300
100
93.5623
87.2315
81.1068
75.2732
69.7966
64.7228
60.0798
55.8843
52.1523
48.9116
46.213
44.1331
42.7667
42.214
42.5702
43.9167
46.3147
49.7998
54.3764
60.0129
66.6365
74.1304
82.3319
91.0354
100
-300
-300
-300
-300
-300
-300
-300
-300
-300
-300
100
90.9447
82.0844
73.6036
65.6671
58.4128
51.9481
46.3493
41.6636
37.9149
35.1099
33.2456
32.3157
32.3157
33.2456
35.1099
37.9149
41.6636
46.3493
51.9481
58.4128
65.6671
73.6036
82.0844
90.9447
100
-300
-300
-300
-300
-300
-300
-300
-300
-300
-300
-300
-300
-300
-300
100
94.1928
88.4753
82.9294
77.6228
72.6044
67.902
63.5253
59.4728
55.7456
52.3666
49.3993
46.9535
45.1646
44.1702
44.0938
45.0366
47.073
50.2476
54.5714
60.018
66.5188
73.9586
82.1713
90.9396
100
-300
-300
-300
-300
-300
-300
-300
-300
-300
-300
100
90.924
82.0434
73.5432
65.5885
58.3176
51.8381
46.2265
41.5301
37.7728
34.9614
33.0929
32.1608
32.1608
33.0929
34.9614
37.7728
41.5301
46.2264
51.8381
58.3176
65.5885
73.5432
82.0434
90.924
100
-300
-300
-300
-300
-300
-300
-300
-300
-300
-300
-300
-300
-300
-300
100
94.9378
89.9471
85.0918
80.4217
75.9666
71.7338
67.7087
63.8619
60.1655
56.623
53.3089
50.3878
48.0597
46.5131
45.9054
46.3578
47.9563
50.7531
54.7655
59.9741
66.318
73.6888
81.9223
90.7905
100
-300
-300
-300
-300
-300
-300
-300
-300
-300
-300
100
90.9102
82.0161
73.503
65.5362
58.2543
51.765
46.1448
41.4413
37.6783
34.8627
32.9913
32.0578
32.0578
32.9913
34.8627
37.6783
41.4413
46.1448
51.765
58.2542
65.5362
73.503
82.0161
90.9102
100
-300
-300
-300
-300
-300
-300
-300
-300
-300
-300
-300
-300
-300
-300
100
95.7919
91.6375
87.5831
83.6608
79.882
76.2322
72.668
69.1194
65.5044
61.7726
57.9928
54.4387
51.4189
49.1903
47.9445
47.8173
48.901
51.2512
54.8903
59.8074
65.9544
73.2393
81.512
90.5429
100
-300
-300
-300
-300
-300
-300
-300
-300
-300
-300
100
90.9012
81.9983
73.4768
65.5021
58.213
51.7173
46.0915
41.3834
37.6167
34.7982
32.925
31.9906
31.9906
32.925
34.7982
37.6166
41.3833
46.0915
51.7172
58.2129
65.5021
73.4768
81.9983
90.9012
100
-300
-300
-300
-300
-300
-300
-300
-300
-300
-300
-300
-300
-300
-300
100
96.7448
93.5269
90.3765
87.3109
84.3262
81.3897
78.4297
75.3246
71.9008
67.9719
63.5169
59.0847
55.1733
52.1169
50.1265
49.3368
49.8342
51.6709
54.8713
59.4338
65.3296
72.4979
80.8278
90.1178
100
-300
-300
-300
-300
-300
-300
-300
-300
-300
-300
100
90.8954
81.9869
73.46
65.4803
58.1865
51.6867
46.0574
41.3463
37.5772
34.757
32.8826
31.9476
31.9476
32.8826
34.757
37.5772
41.3462
46.0574
51.6867
58.1865
65.4802
73.46
81.9869
90.8954
100
-300
-300
-300
-300
-300
-300
-300
-300
-300
-300
-300
-300
-300
-300
100
97.7799
95.5827
93.4258
91.3156
89.2406
87.1602
84.988
82.5593
79.5757
75.5451
69.9551
64.2388
59.1859
55.1593
52.3378
50.8225
50.6768
51.9402
54.634
58.7646
64.3275
71.3102
79.6851
89.3601
100
-300
-300
-300
-300
-300
-300
-300
-300
-300
-300
100
90.8918
81.9798
73.4495
65.4666
58.1699
51.6675
46.036
41.323
37.5525
34.7311
32.856
31.9206
31.9206
32.8559
34.7311
37.5524
41.3229
46.0359
51.6674
58.1698
65.4665
73.4494
81.9797
90.8918
100
-300
-300
-300
-300
-300
-300
-300
-300
-300
-300
-300
-300
-300
-300
100
98.8744
97.7594
96.6628
95.5859
94.5187
93.432
92.2595
90.854
88.8625
85.3285
77.2972
69.6394
63.2
58.1202
54.4355
52.1713
51.3516
51.9954
54.1153
57.7205
62.8263
69.475
77.7719
87.9158
100
-300
-300
-300
-300
-300
-300
-300
-300
-300
-300
100
90.8896
81.9754
73.443
65.4581
58.1597
51.6557
46.0228
41.3087
37.5372
34.7152
32.8395
31.904
31.9039
32.8395
34.7151
37.5371
41.3085
46.0226
51.6555
58.1595
65.458
73.4428
81.9753
90.8895
100
-300
-300
-300
-300
-300
-300
-300
-300
-300
-300
-300
-300
-300
-300
100
100
100
100
100
100
100
100
100
100
100
84.8553
74.6006
66.7918
60.7481
56.2658
53.2859
51.7956
51.794
53.2812
56.2581
60.7378
66.7794
74.5876
84.8447
100
100
100
100
100
100
100
100
100
100
100
100
90.8882
81.9727
73.4391
65.453
58.1535
51.6486
46.0148
41.3
37.528
34.7055
32.8296
31.8939
31.8938
32.8295
34.7053
37.5277
41.2997
46.0145
51.6482
58.1532
65.4527
73.4388
81.9725
90.8881
100
-300
-300
-300
-300
-300
-300
-300
-300
-300
-300
-300
-300
-300
-300
-300
-300
-300
-300
-300
-300
-300
-300
-300
-300
100
87.9166
77.7711
69.4709
62.8181
57.7081
54.0987
51.9748
51.3274
52.1439
54.4054
58.0881
63.1667
69.6061
77.2658
85.3013
88.8374
90.8307
92.2382
93.413
94.5023
95.5724
96.6524
97.7524
98.8708
100
100
90.8874
81.9711
73.4367
65.45
58.1498
51.6443
46.0101
41.2948
37.5224
34.6997
32.8236
31.8878
31.8877
32.8234
34.6993
37.5219
41.2942
46.0094
51.6437
58.1492
65.4494
73.4362
81.9708
90.8873
100
-300
-300
-300
-300
-300
-300
-300
-300
-300
-300
-300
-300
-300
-300
-300
-300
-300
-300
-300
-300
-300
-300
-300
-300
100
89.3539
79.672
71.2898
64.2996
58.7296
54.5924
51.8928
50.6243
50.7658
52.2778
55.0971
59.1225
64.1756
69.8935
75.4865
79.5203
82.5076
84.9406
87.1178
89.2039
91.2854
93.4025
95.5669
97.772
100
100
90.887
81.9702
73.4354
65.4482
58.1477
51.6418
46.0073
41.2918
37.5191
34.6962
32.82
31.884
31.8839
32.8196
34.6956
37.5183
41.2907
46.0061
51.6406
58.1465
65.4472
73.4345
81.9696
90.8867
100
-300
-300
-300
-300
-300
-300
-300
-300
-300
-300
-300
-300
-300
-300
-300
-300
-300
-300
-300
-300
-300
-300
-300
-300
100
90.1042
80.8005
72.4572
65.2762
59.3686
54.7955
51.5859
49.7413
49.2376
50.0227
52.0099
55.0648
58.9764
63.4106
67.8691
71.8028
75.2328
78.3454
81.3143
84.2609
87.257
90.3351
93.4987
96.7306
100
100
90.8867
81.9697
73.4346
65.4472
58.1464
51.6404
46.0056
41.2899
37.5171
34.6941
32.8177
31.8816
31.8814
32.817
34.693
37.5156
41.2881
46.0036
51.6383
58.1444
65.4454
73.4331
81.9686
90.8862
100
-300
-300
-300
-300
-300
-300
-300
-300
-300
-300
-300
-300
-300
-300
-300
-300
-300
-300
-300
-300
-300
-300
-300
-300
100
90.5192
81.4652
73.1702
65.8644
59.6982
54.7641
51.1102
48.7477
47.6543
47.7741
49.0152
51.2415
54.2617
57.8186
61.6035
65.3429
68.9679
72.5288
76.1075
79.7741
83.5718
87.5147
91.5911
95.7684
100
100
90.8866
81.9694
73.4341
65.4466
58.1457
51.6395
46.0046
41.2887
37.5158
34.6926
32.8161
31.8798
31.8794
32.8149
34.6907
37.5132
41.2857
46.0012
51.6359
58.1422
65.4434
73.4315
81.9675
90.8856
100
-300
-300
-300
-300
-300
-300
-300
-300
-300
-300
-300
-300
-300
-300
-300
-300
-300
-300
-300
-300
-300
-300
-300
-300
100
90.7524
81.8467
73.5775
66.1734
59.7991
54.5635
50.5278
47.7118
46.098
45.6344
46.2347
47.7778
50.1064
53.0318
56.3539
59.9083
63.6205
67.4868
71.5351
75.7947
80.2798
84.9827
89.873
94.9003
100
100
90.8865
81.9692
73.4338
65.4462
58.1452
51.6389
46.0038
41.2878
37.5148
34.6914
32.8146
31.8781
31.8774
32.8126
34.6881
37.5104
41.2827
45.9981
51.6329
58.1393
65.4409
73.4294
81.9661
90.8848
100
-300
-300
-300
-300
-300
-300
-300
-300
-300
-300
-300
-300
-300
-300
-300
-300
-300
-300
-300
-300
-300
-300
-300
-300
100
90.8798
82.0531
73.7846
66.2928
59.7447
54.2562
49.8964
46.692
44.632
43.6719
43.737
44.7261
46.5157
48.9681
51.9479
55.3453
59.097
63.1798
67.5927
72.3367
77.4019
82.7596
88.36
94.1346
100
100
90.8864
81.969
73.4336
65.4459
58.1448
51.6383
46.0032
41.287
37.5137
34.69
32.8129
31.876
31.8749
32.8096
34.6846
37.5065
41.2784
45.9936
51.6284
58.1351
65.4371
73.4263
81.9638
90.8837
100
-300
-300
-300
-300
-300
-300
-300
-300
-300
-300
-300
-300
-300
-300
-300
-300
-300
-300
-300
-300
-300
-300
-300
-300
100
90.9438
82.1509
73.864
66.2907
59.5948
53.8945
49.2631
45.7326
43.2988
41.9259
41.5526
42.0974
43.4649
45.5549
48.2726
51.5415
55.3109
59.5527
64.2508
69.3882
74.9361
80.8477
87.0556
93.4734
100
100
90.8863
81.9689
73.4334
65.4456
58.1444
51.6378
46.0024
41.286
37.5123
34.6882
32.8105
31.873
31.8712
32.8051
34.6794
37.5006
41.2719
45.9868
51.6215
58.1285
65.4311
73.4214
81.9604
90.8819
100
-300
-300
-300
-300
-300
-300
-300
-300
-300
-300
-300
-300
-300
-300
-300
-300
-300
-300
-300
-300
-300
-300
-300
-300
100
90.9695
82.1822
73.8653
66.2163
59.3947
53.5182
48.6622
44.8629
42.1221
40.4129
39.6861
39.8776
40.9148
42.7242
45.2387
48.404
52.181
56.5423
61.4646
66.9191
72.8634
79.2358
85.9535
92.914
100
100
90.8863
81.9688
73.4332
65.4453
58.1439
51.6371
46.0014
41.2845
37.5103
34.6856
32.8071
31.8686
31.8657
32.7984
34.6716
37.4916
41.262
45.9763
51.6108
58.1182
65.4218
73.4138
81.9549
90.879
100
-300
-300
-300
-300
-300
-300
-300
-300
-300
-300
-300
-300
-300
-300
-300
-300
-300
-300
-300
-300
-300
-300
-300
-300
100
90.9722
82.1741
73.8214
66.1035
59.1757
53.1542
48.1153
44.0984
41.1103
39.1317
38.1243
38.0379
38.8175
40.4094
42.7662
45.8493
49.6293
54.0817
59.1798
64.8879
71.1534
77.9029
85.0406
92.4502
100
100
90.8862
81.9686
73.4329
65.4449
58.1432
51.6361
46
41.2825
37.5075
34.6817
32.802
31.8621
31.8575
32.7884
34.6596
37.4779
41.2468
45.9601
51.5943
58.1022
65.4074
73.4019
81.9464
90.8746
100
-300
-300
-300
-300
-300
-300
-300
-300
-300
-300
-300
-300
-300
-300
-300
-300
-300
-300
-300
-300
-300
-300
-300
-300
100
90.9615
82.1433
73.753
65.974
58.9576
52.8184
47.633
43.4431
40.2594
38.0689
36.842
36.5397
37.1204
38.5449
40.7799
43.7988
47.58
52.1021
57.3376
63.2462
69.7683
76.8212
84.2987
92.073
100
100
90.8861
81.9684
73.4326
65.4442
58.1423
51.6347
45.9979
41.2796
37.5034
34.6761
32.7945
31.8524
31.8452
32.7734
34.6417
37.4573
41.2238
45.9355
51.5692
58.0778
65.3853
73.3836
81.9333
90.8678
100
-300
-300
-300
-300
-300
-300
-300
-300
-300
-300
-300
-300
-300
-300
-300
-300
-300
-300
-300
-300
-300
-300
-300
-300
100
90.9428
82.0996
73.6723
65.8398
58.7504
52.517
47.2165
42.8916
39.5564
37.2025
35.8072
35.3398
35.769
37.0661
39.2083
42.178
45.9597
50.5353
55.8774
61.9428
68.6667
75.9597
83.7072
91.772
100
100
90.886
81.9681
73.432
65.4434
58.141
51.6327
45.995
41.2753
37.4975
34.668
32.7837
31.8383
31.8274
32.7513
34.6154
37.4267
41.1897
45.8987
51.5314
58.0411
65.3519
73.3558
81.9134
90.8574
100
-300
-300
-300
-300
-300
-300
-300
-300
-300
-300
-300
-300
-300
-300
-300
-300
-300
-300
-300
-300
-300
-300
-300
-300
100
90.9188
82.0475
73.5844
65.7054
58.5563
52.249
46.8597
42.4321
38.9823
36.5055
34.9837
34.3928
34.7087
35.9107
37.9838
40.9167
44.6992
49.3159
54.7398
60.926
67.8064
75.2862
83.2445
91.5365
100
100
90.8858
81.9677
73.4313
65.4422
58.1391
51.6299
45.9909
41.2694
37.4892
34.6566
32.7684
31.8182
31.8018
32.7196
34.5772
37.3822
41.1396
45.8446
51.4755
57.9864
65.3018
73.3141
81.8834
90.8416
100
-300
-300
-300
-300
-300
-300
-300
-300
-300
-300
-300
-300
-300
-300
-300
-300
-300
-300
-300
-300
-300
-300
-300
-300
100
90.8899
81.9877
73.4895
65.5694
58.3718
52.0071
46.5512
42.0478
38.5142
35.9479
34.3344
33.6539
33.8876
35.0206
37.0436
39.9503
43.7343
48.3824
53.8686
60.1469
67.1466
74.7693
82.8891
91.3555
100
100
90.8855
81.9671
73.4303
65.4406
58.1366
51.6261
45.9852
41.2613
37.4776
34.6407
32.7469
31.79
31.7657
32.6746
34.5227
37.3184
41.0675
45.7662
51.3939
57.906
65.228
73.2522
81.8387
90.8182
100
-300
-300
-300
-300
-300
-300
-300
-300
-300
-300
-300
-300
-300
-300
-300
-300
-300
-300
-300
-300
-300
-300
-300
-300
100
90.8548
81.9173
73.3831
65.4255
58.1879
51.7796
46.2755
41.719
38.1275
35.4995
33.8227
33.0804
33.2572
34.3426
36.3311
39.2204
43.0069
47.6794
53.2126
59.5601
66.6496
74.3798
82.6212
91.219
100
100
90.8852
81.9663
73.4289
65.4384
58.1332
51.6209
45.9776
41.2502
37.462
34.619
32.7176
31.7512
31.7157
32.612
34.4466
37.2286
40.9651
45.654
51.2765
57.7896
65.1201
73.1614
81.7727
90.7835
100
-300
-300
-300
-300
-300
-300
-300
-300
-300
-300
-300
-300
-300
-300
-300
-300
-300
-300
-300
-300
-300
-300
-300
-300
100
90.8105
81.8303
73.2565
65.2625
57.9912
51.5507
46.0142
41.4239
37.7964
35.1305
33.4144
32.6332
32.7741
33.8293
35.7964
38.6757
42.4661
47.158
52.7267
59.1257
66.2817
74.0914
82.4228
91.1179
100
100
90.8847
81.9654
73.4272
65.4356
58.1288
51.6142
45.9676
41.2356
37.4412
34.59
32.6782
31.6989
31.648
32.5266
34.3419
37.1041
40.8222
45.4961
51.1097
57.6227
64.9643
73.0291
81.6761
90.7324
100
-300
-300
-300
-300
-300
-300
-300
-300
-300
-300
-300
-300
-300
-300
-300
-300
-300
-300
-300
-300
-300
-300
-300
-300
100
90.7518
81.7173
73.0966
65.0647
57.764
51.3008
45.746
41.1393
37.4956
34.8123
33.0776
32.2773
32.4
33.4398
35.3964
38.2724
42.0683
46.7762
52.3719
58.8092
66.0138
73.8816
82.2785
91.0445
100
100
90.8842
81.9641
73.425
65.432
58.1231
51.6055
45.9546
41.2167
37.4141
34.5522
32.6264
31.6298
31.5579
32.4122
34.2005
36.9348
40.6259
45.2771
50.876
57.3864
64.7414
72.838
81.5355
90.6576
100
-300
-300
-300
-300
-300
-300
-300
-300
-300
-300
-300
-300
-300
-300
-300
-300
-300
-300
-300
-300
-300
-300
-300
-300
100
90.6712
81.5641
72.8848
64.8107
57.4834
51.0066
45.4473
40.8412
37.1998
34.5185
32.784
31.9822
32.1021
33.1393
35.0951
37.9737
41.7774
46.4992
52.116
58.5816
65.8217
73.7314
82.1753
90.9919
100
100
90.8835
81.9626
73.4223
65.4275
58.116
51.5946
45.9383
41.1927
37.3797
34.5037
32.5598
31.5403
31.4405
32.262
34.0135
36.7085
40.361
44.9781
50.553
57.0555
64.425
72.5634
81.3312
90.5482
100
-300
-300
-300
-300
-300
-300
-300
-300
-300
-300
-300
-300
-300
-300
-300
-300
-300
-300
-300
-300
-300
-300
-300
-300
100
90.5575
81.3507
72.5952
64.4719
57.1208
50.6405
45.0918
40.5044
36.8848
34.2246
32.5086
31.7216
31.8531
32.8994
34.8631
37.7501
41.5639
46.2989
51.9327
58.4197
65.6857
73.6253
82.1026
90.9549
100
100
90.8826
81.9607
73.4189
65.422
58.1074
51.5813
45.9182
41.163
37.3368
34.4431
32.476
31.427
31.2907
32.0688
33.7707
36.4119
40.0096
44.5764
50.1125
56.5972
63.9795
72.1702
81.0342
90.3875
100
-300
-300
-300
-300
-300
-300
-300
-300
-300
-300
-300
-300
-300
-300
-300
-300
-300
-300
-300
-300
-300
-300
-300
-300
100
90.3937
81.0473
72.1913
64.0106
56.6403
50.1701
44.6509
40.1034
36.527
33.9084
32.2296
31.4738
31.6306
32.697
34.6769
37.5778
41.4046
46.1528
51.8014
58.3051
65.5902
73.5512
82.0519
90.9292
100
100
90.8817
81.9585
73.4151
65.4156
58.0971
51.5654
45.894
41.1272
37.2848
34.3691
32.373
31.2867
31.104
31.8259
33.4624
36.0308
39.5522
44.0456
49.5207
55.9694
63.3561
71.6077
80.6004
90.1488
100
-300
-300
-300
-300
-300
-300
-300
-300
-300
-300
-300
-300
-300
-300
-300
-300
-300
-300
-300
-300
-300
-300
-300
-300
100
90.1528
80.6089
71.6214
63.3763
55.9972
49.5579
44.0936
39.6126
36.1047
33.5507
31.9288
31.2211
31.4169
32.5143
34.5186
37.4388
41.2817
46.0441
51.7062
58.2237
65.5232
73.4997
82.0169
90.9115
100
100
90.8806
81.9561
73.4107
65.4083
58.0853
51.5469
45.8658
41.085
37.2231
34.2809
32.2494
31.1172
30.8765
31.5273
33.0795
35.5519
38.9693
43.3577
48.7382
55.1195
62.4893
70.8018
79.9596
89.7868
100
-300
-300
-300
-300
-300
-300
-300
-300
-300
-300
-300
-300
-300
-300
-300
-300
-300
-300
-300
-300
-300
-300
-300
-300
100
89.7894
79.9651
70.8106
62.5022
55.1372
48.7617
43.388
39.0073
35.5985
33.1351
31.5921
30.9501
31.1991
32.3382
34.3748
37.3199
41.1821
45.9601
51.6354
58.1649
65.476
73.464
81.9929
90.8994
100
100
90.8795
81.9536
73.406
65.4002
58.0722
51.5261
45.8337
41.0367
37.152
34.1784
32.1048
30.9175
30.6062
31.1694
32.6156
34.9643
38.2431
42.4848
47.7226
53.9857
61.2929
69.6436
78.9959
89.218
100
-300
-300
-300
-300
-300
-300
-300
-300
-300
-300
-300
-300
-300
-300
-300
-300
-300
-300
-300
-300
-300
-300
-300
-300
100
89.2197
78.9993
69.6491
61.301
53.9967
47.7373
42.5036
38.2667
34.9931
32.65
31.2094
30.6517
30.968
32.1597
34.2364
37.2118
41.0967
45.892
51.5808
58.1214
65.4421
73.4389
81.9763
90.8911
100
100
90.8784
81.951
73.4012
65.3919
58.0583
51.5037
45.7986
40.9832
37.0723
34.0627
31.9403
30.6884
30.2937
30.7515
32.0683
34.2621
37.3618
41.4048
46.4348
52.5013
59.6601
67.9753
77.51
88.2704
100
-300
-300
-300
-300
-300
-300
-300
-300
-300
-300
-300
-300
-300
-300
-300
-300
-300
-300
-300
-300
-300
-300
-300
-300
100
88.2714
77.5121
67.9786
59.665
52.508
46.4438
41.4163
37.3762
34.2796
32.0892
30.7758
30.3213
30.7191
31.9736
34.0979
37.1086
41.0196
45.834
51.5369
58.0882
65.4173
73.4212
81.9648
90.8854
100
100
90.8775
81.9488
73.3968
65.3839
58.0444
51.4805
45.7616
40.9259
36.9861
33.9361
31.7586
30.4332
29.9425
30.2777
31.4411
33.4476
36.324
40.1082
44.849
50.6091
57.4754
65.5822
75.1535
86.5409
100
-300
-300
-300
-300
-300
-300
-300
-300
-300
-300
-300
-300
-300
-300
-300
-300
-300
-300
-300
-300
-300
-300
-300
-300
100
86.5415
75.1547
65.5843
57.4784
50.6131
44.8543
40.1151
36.3326
33.4581
31.4536
30.2922
29.959
30.4515
31.7785
33.9571
37.0078
40.9476
45.7827
51.5004
58.0622
65.3991
73.4088
81.9571
90.8817
100
100
90.8771
81.9475
73.3936
65.3772
58.0317
51.4584
45.7248
40.8674
36.8963
33.8023
31.5645
30.1579
29.5602
29.757
30.7451
32.5333
35.143
38.6066
42.9686
48.2891
54.6573
62.2315
71.3545
82.9444
100
100
100
100
100
100
100
100
100
100
100
100
100
100
100
100
100
100
100
100
100
100
100
100
100
100
82.9448
71.3552
62.2327
54.6591
48.2914
42.9718
38.6107
35.148
32.5395
30.7524
29.7656
29.5699
30.1686
31.5762
33.8147
36.909
40.8801
45.7372
51.47
58.0422
65.3861
73.4007
81.9523
90.8795
100
100
90.8774
81.9477
73.3927
65.3734
58.0224
51.4396
45.6911
40.8113
36.8075
33.6671
31.365
29.8713
29.158
29.2042
29.9991
31.5435
33.8496
36.9392
40.8421
45.5963
51.2492
57.8617
65.5
74.1306
82.9444
86.5408
88.2702
89.2177
89.7863
90.1478
90.3858
90.5454
90.6531
90.725
90.7717
90.7996
90.8126
90.8126
90.7996
90.7717
90.725
90.6531
90.5454
90.3858
90.1478
89.7863
89.2177
88.2702
86.5408
82.9444
74.1309
65.5004
57.8624
51.2502
45.5977
40.8439
36.9415
33.8525
31.5471
30.0033
29.2091
29.1636
29.8775
31.3717
33.6742
36.8148
40.8186
45.6983
51.4463
58.0284
65.3785
73.3968
81.9505
90.8789
100
100
90.8792
81.9507
73.3958
65.3746
58.019
51.4276
45.6647
40.7625
36.7256
33.5378
31.1695
29.5854
28.7514
28.639
29.2291
30.5131
32.4913
35.1716
38.5645
42.6786
47.5113
53.0308
59.1294
65.4999
71.3544
75.1533
77.5096
78.9952
79.9585
80.5985
81.031
81.3258
81.5267
81.662
81.7501
81.803
81.8277
81.8277
81.803
81.7501
81.662
81.5267
81.3258
81.031
80.5985
79.9585
78.9953
77.5096
75.1533
71.3545
65.5001
59.1296
53.0312
47.5119
42.6794
38.5656
35.1729
32.493
30.5151
29.2315
28.6417
28.7545
29.5889
31.1733
33.5418
36.7298
40.7667
45.6688
51.4314
58.0225
65.3775
73.398
81.9523
90.88
100
100
90.8831
81.9579
73.4051
65.3841
58.0257
51.4273
45.6514
40.728
36.6589
33.4241
30.9897
29.3149
28.3588
28.0855
28.467
29.4843
31.126
33.3851
36.2537
39.7151
43.7314
48.2226
53.0308
57.8617
62.2313
65.5819
67.9748
69.6427
70.8002
71.605
72.1657
72.5559
72.8257
73.0092
73.1296
73.2022
73.2363
73.2363
73.2022
73.1296
73.0092
72.8257
72.5559
72.1657
71.605
70.8002
69.6427
67.9748
65.582
62.2314
57.8617
53.0309
48.2229
43.7317
39.7155
36.2543
33.3858
31.1269
29.4854
28.4684
28.087
28.3606
29.3168
30.9918
33.4264
36.6612
40.7303
45.6536
51.4294
58.0276
65.3858
73.4064
81.9588
90.8835
100
100
90.8903
81.9717
73.4242
65.4064
58.048
51.4452
45.6588
40.7166
36.6176
33.3383
30.8403
29.0773
28.002
27.5711
27.7478
28.5032
29.8148
31.6627
34.0244
36.8665
40.1331
43.7314
47.5113
51.2491
54.6571
57.4751
59.6595
61.2919
62.4874
63.3529
63.974
64.4159
64.7264
64.9401
65.0815
65.1673
65.2077
65.2077
65.1673
65.0815
64.9401
64.7264
64.4159
63.974
63.3529
62.4874
61.2919
59.6595
57.4751
54.6572
51.2492
47.5114
43.7315
40.1333
36.8667
34.0248
31.6631
29.8153
28.5038
27.7485
27.5719
28.003
29.0783
30.8414
33.3396
36.6189
40.7179
45.66
51.4463
58.0491
65.4073
73.4249
81.9722
90.8905
100
100
90.9024
81.9953
73.4577
65.4476
58.0935
51.4903
45.6974
40.7404
36.6154
33.2958
30.7387
28.8931
27.7054
27.1252
27.1079
27.6158
28.6165
30.0803
31.9746
34.2568
36.8665
39.7151
42.6786
45.5962
48.2888
50.6087
52.5006
53.9845
55.1174
55.9657
56.5911
57.0453
57.3697
57.5957
57.7467
57.8388
57.8824
57.8824
57.8388
57.7467
57.5957
57.3697
57.0453
56.5911
55.9657
55.1174
53.9845
52.5006
50.6087
48.2889
45.5962
42.6786
39.7152
36.8666
34.257
31.9747
30.0805
28.6168
27.6161
27.1083
27.1257
27.7059
28.8936
30.7394
33.2964
36.6161
40.741
45.6981
51.491
58.0941
65.448
73.4581
81.9955
90.9026
100
100
90.9216
82.0329
73.5121
65.5161
58.1725
51.5749
45.781
40.8146
36.6694
33.3155
30.7064
28.7862
27.4962
26.7795
26.5846
26.8663
27.5846
28.7024
30.181
31.9746
34.0244
36.2537
38.5645
40.842
42.9684
44.8486
46.4341
47.7214
48.7359
49.5169
50.1061
50.5423
50.8586
51.0816
51.2319
51.3243
51.3681
51.3681
51.3243
51.2319
51.0816
50.8586
50.5423
50.1061
49.5169
48.7359
47.7214
46.4341
44.8486
42.9684
40.842
38.5645
36.2537
34.0245
31.9746
30.1811
28.7025
27.5847
26.8664
26.5849
26.7798
27.4965
28.7865
30.7067
33.3158
36.6698
40.815
45.7814
51.5752
58.1728
65.5163
73.5123
82.033
90.9217
100
100
90.9509
82.0904
73.5959
65.6231
58.2986
51.7147
45.9277
40.9594
36.8015
33.4213
30.769
28.7848
27.4051
26.5679
26.2157
26.2973
26.767
27.5827
28.7024
30.0803
31.6627
33.385
35.1715
36.939
38.6064
40.1078
41.4041
42.4835
43.3554
44.0418
44.57
44.9675
45.2599