# vtk DataFile Version 2.0
LBE two cylinders
ASCII
DATASET STRUCTURED_POINTS
DIMENSIONS 76 76 1
ASPECT_RATIO 1 1 1
ORIGIN 0 0 0
POINT_DATA 5776
SCALARS temp double 1
LOOKUP_TABLE default
100
100
100
100
100
100
100
100
100
100
100
100
100
100
100
100
100
100
100
100
100
100
100
100
100
100
-300
-300
-300
-300
-300
-300
-300
-300
-300
-300
-300
-300
-300
-300
100
100
100
100
100
100
100
100
100
100
100
100
100
100
100
100
100
100
100
100
100
100
100
100
100
100
-300
-300
-300
-300
-300
-300
-300
-300
-300
-300
100
98.6717
97.3785
96.1528
95.0223
94.008
93.1237
92.3764
91.7667
91.2909
90.9428
90.7156
90.6035
90.6035
90.7156
90.9428
91.2909
91.7667
92.3764
93.1237
94.008
95.0223
96.1528
97.3785
98.6717
100
-300
-300
-300
-300
-300
-300
-300
-300
-300
-300
-300
-300
-300
-300
100
98.6724
97.3799
96.1549
95.0249
94.011
93.1271
92.38
91.7703
91.2944
90.9462
90.7186
90.6063
90.6059
90.7176
90.9445
91.2923
91.7678
92.3772
93.1243
94.0084
95.0226
96.153
97.3786
98.6717
100
-300
-300
-300
-300
-300
-300
-300
-300
-300
-300
100
97.3781
94.8255
92.4062
90.1748
88.1727
86.4274
84.9522
83.7488
82.8097
82.1226
81.6741
81.4529
81.4529
81.6741
82.1226
82.8097
83.7488
84.9522
86.4274
88.1727
90.1748
92.4062
94.8255
97.3781
100
-300
-300
-300
-300
-300
-300
-300
-300
-300
-300
-300
-300
-300
-300
100
97.3799
94.8289
92.4112
90.181
88.18
86.4354
84.9607
83.7574
82.8181
82.1306
81.6814
81.4595
81.4586
81.6789
82.1267
82.813
83.7513
84.9542
86.4288
88.1737
90.1754
92.4067
94.8257
97.3782
100
-300
-300
-300
-300
-300
-300
-300
-300
-300
-300
100
96.1513
92.4043
88.853
85.5774
82.6386
80.0767
77.9113
76.1448
74.7664
73.7578
73.0994
72.7748
72.7748
73.0994
73.7578
74.7664
76.1448
77.9113
80.0767
82.6386
85.5774
88.853
92.4043
96.1513
100
-300
-300
-300
-300
-300
-300
-300
-300
-300
-300
-300
-300
-300
-300
100
96.1547
92.411
88.8627
85.5897
82.6528
80.0923
77.9278
76.1615
74.7827
73.7733
73.1137
72.7876
72.7859
73.1089
73.7657
74.7727
76.1498
77.9151
80.0794
82.6405
85.5788
88.8539
92.4048
96.1515
100
-300
-300
-300
-300
-300
-300
-300
-300
-300
-300
100
95.0182
90.168
85.5712
81.3313
77.5272
74.211
71.4083
69.1218
67.3375
66.0321
65.1798
64.7596
64.7596
65.1798
66.0321
67.3375
69.1218
71.4083
74.211
77.5272
81.3313
85.5712
90.168
95.0182
100
-300
-300
-300
-300
-300
-300
-300
-300
-300
-300
-300
-300
-300
-300
100
95.0244
90.1802
85.5889
81.3536
77.5532
74.2396
71.4384
69.1522
67.3674
66.0604
65.206
64.7831
64.7801
65.1972
66.0464
67.3491
69.1308
71.4151
74.216
77.5307
81.3336
85.5727
90.1689
95.0186
100
-300
-300
-300
-300
-300
-300
-300
-300
-300
-300
100
93.9989
88.1563
82.619
77.5116
72.9293
68.9347
65.5586
62.8043
60.6551
59.0826
58.0561
57.5499
57.5499
58.0561
59.0826
60.6551
62.8043
65.5586
68.9347
72.9293
77.5116
82.619
88.1563
93.9989
100
-300
-300
-300
-300
-300
-300
-300
-300
-300
-300
-300
-300
-300
-300
100
94.01
88.178
82.6504
77.5512
72.9754
68.9854
65.6119
62.8583
60.708
59.1329
58.1024
57.5915
57.5862
58.0869
59.1081
60.6755
62.8202
65.5706
68.9434
72.9354
77.5157
82.6217
88.1578
93.9995
100
-300
-300
-300
-300
-300
-300
-300
-300
-300
-300
100
93.1058
86.3937
80.0325
74.165
68.9008
64.3119
60.4334
57.2694
54.8005
52.9941
51.8148
51.2334
51.2334
51.8148
52.9941
54.8005
57.2694
60.4334
64.3119
68.9008
74.165
80.0325
86.3937
93.1058
100
-300
-300
-300
-300
-300
-300
-300
-300
-300
-300
-300
-300
-300
-300
100
93.125
86.4313
80.0866
74.2334
68.9805
64.3995
60.5257
57.3629
54.8921
53.0811
51.8951
51.3054
51.2963
51.8682
53.0381
54.8358
57.2969
60.4541
64.3269
68.9113
74.172
80.0369
86.3963
93.1069
100
-300
-300
-300
-300
-300
-300
-300
-300
-300
-300
100
92.3436
84.8895
77.825
71.3089
65.4628
60.3666
56.0596
52.5459
49.8041
47.7981
46.4886
45.8429
45.8429
46.4886
47.7981
49.8041
52.5459
56.0596
60.3666
65.4628
71.3089
77.825
84.8895
92.3436
100
-300
-300
-300
-300
-300
-300
-300
-300
-300
-300
-300
-300
-300
-300
100
92.376
84.9529
77.9164
71.4244
65.5975
60.5149
56.2156
52.7041
49.9592
47.9455
46.6246
45.9649
45.9494
46.5789
47.8726
49.8637
52.5921
56.0943
60.3918
65.4803
71.3205
77.8323
84.8937
92.3454
100
-300
-300
-300
-300
-300
-300
-300
-300
-300
-300
100
91.7099
83.6389
75.9897
68.9344
62.6046
57.0867
52.4233
48.619
45.6504
43.4785
42.0607
41.3617
41.3617
42.0607
43.4785
45.6504
48.619
52.4233
57.0867
62.6046
68.9344
75.9897
83.6389
91.7099
100
-300
-300
-300
-300
-300
-300
-300
-300
-300
-300
-300
-300
-300
-300
100
91.7634
83.7436
76.1409
69.1254
62.8273
57.332
52.6817
48.8809
45.9073
43.7227
42.2861
41.5638
41.538
42.2102
43.6017
45.7488
48.6952
52.4803
57.1278
62.633
68.9531
76.0013
83.6455
91.7128
100
-300
-300
-300
-300
-300
-300
-300
-300
-300
-300
100
91.1966
82.6259
74.5031
67.0111
60.2894
54.4301
49.4781
45.4384
42.2862
39.98
38.4744
37.7322
37.7322
38.4744
39.98
42.2862
45.4384
49.4781
54.4301
60.2894
67.0111
74.5031
82.6259
91.1966
100
-300
-300
-300
-300
-300
-300
-300
-300
-300
-300
-300
-300
-300
-300
100
91.2831
82.7951
74.7475
67.32
60.6499
54.8272
49.8965
45.8629
42.7025
40.3758
38.8399
38.06
38.0179
38.7165
40.1791
42.4451
45.5611
49.5696
54.4957
60.3345
67.0405
74.5212
82.636
91.201
100
-300
-300
-300
-300
-300
-300
-300
-300
-300
-300
100
90.7915
81.8264
73.3299
65.4931
58.4623
52.3335
47.1538
42.9283
39.6312
37.219
35.6443
34.8679
34.8679
35.6443
37.219
39.6312
42.9283
47.1538
52.3335
58.4623
65.4931
73.3299
81.8264
90.7915
100
-300
-300
-300
-300
-300
-300
-300
-300
-300
-300
-300
-300
-300
-300
100
90.9283
82.094
73.7165
65.9821
59.033
52.9626
47.8169
43.6014
40.2917
37.8471
36.2241
35.3879
35.321
36.0278
37.534
39.882
43.1214
47.2971
52.4357
58.5319
65.5381
73.3571
81.8413
90.798
100
-300
-300
-300
-300
-300
-300
-300
-300
-300
-300
100
90.4799
81.2115
72.4275
64.3257
57.0571
50.721
45.3662
40.9979
37.5894
35.0957
33.4678
32.6652
32.6652
33.4678
35.0957
37.5894
40.9979
45.3662
50.721
57.0571
64.3257
72.4275
81.2115
90.4799
100
-300
-300
-300
-300
-300
-300
-300
-300
-300
-300
-300
-300
-300
-300
100
90.6916
81.6256
73.026
65.0828
57.9412
51.6963
46.3949
42.0425
38.6148
36.0711
34.3683
33.4725
33.3682
34.0621
35.5831
37.9765
41.2949
45.5855
50.8763
57.1617
64.3923
72.4671
81.2328
90.489
100
-300
-300
-300
-300
-300
-300
-300
-300
-300
-300
100
90.2463
80.7505
71.7511
63.4505
56.0037
49.5123
44.0262
39.5509
36.059
33.5042
31.8364
31.0142
31.0142
31.8364
33.5042
36.059
39.5509
44.0262
49.5123
56.0037
63.4505
71.7511
80.7505
90.2463
100
-300
-300
-300
-300
-300
-300
-300
-300
-300
-300
-300
-300
-300
-300
100
90.5668
81.3775
72.6575
64.5979
57.3443
50.9921
45.5882
41.1379
37.6174
34.987
33.2052
32.2408
32.0814
32.7375
34.2417
36.643
39.9972
44.3539
49.7423
56.1568
63.5463
71.8066
80.7795
90.2583
100
-300
-300
-300
-300
-300
-300
-300
-300
-300
-300
100
90.0757
80.4137
71.2568
62.8111
55.234
48.6291
43.0472
38.4937
34.9407
32.3414
30.6445
29.8079
29.8079
30.6445
32.3414
34.9407
38.4937
43.0472
48.6291
55.234
62.8111
71.2568
80.4137
90.0757
100
-300
-300
-300
-300
-300
-300
-300
-300
-300
-300
-300
-300
-300
-300
100
90.5503
81.3425
72.6003
64.5127
57.2236
50.8271
45.3688
40.8542
37.2599
34.5485
32.6816
31.6324
31.3936
31.9812
33.4328
35.8022
39.1488
43.5248
48.9608
55.4514
62.9439
71.3313
80.4509
90.0904
100
-300
-300
-300
-300
-300
-300
-300
-300
-300
-300
100
89.9541
80.1737
70.9047
62.3555
54.6857
47.9999
42.3497
37.7406
34.1442
31.5131
29.7955
28.9486
28.9486
29.7955
31.5131
34.1442
37.7406
42.3497
47.9999
54.6857
62.3555
70.9047
80.1737
89.9541
100
-300
-300
-300
-300
-300
-300
-300
-300
-300
-300
-300
-300
-300
-300
100
90.6419
81.5204
72.8535
64.8256
57.5764
51.1962
45.7289
41.1789
37.5243
34.7304
32.7643
31.6057
31.2549
31.7357
33.0928
35.3861
38.6796
43.0287
48.4655
54.9848
62.5327
70.9993
80.2178
89.9702
100
-300
-300
-300
-300
-300
-300
-300
-300
-300
-300
100
89.8696
80.007
70.6601
62.039
54.3048
47.5629
41.8653
37.2174
33.5909
30.9377
29.2057
28.3518
28.3518
29.2057
30.9377
33.5909
37.2174
41.8653
47.5629
54.3048
62.039
70.6601
80.007
89.8696
100
-300
-300
-300
-300
-300
-300
-300
-300
-300
-300
-300
-300
-300
-300
100
90.8454
81.918
73.4273
65.5495
58.417
52.1149
46.6828
42.1238
38.4172
35.5325
33.4441
32.1413
31.6356
31.9616
33.1741
35.3407
38.5316
42.8059
48.1977
54.7024
62.2646
70.7719
80.0529
89.8836
100
-300
-300
-300
-300
-300
-300
-300
-300
-300
-300
100
89.8124
79.8941
70.4943
61.8246
54.0467
47.2668
41.537
36.863
33.216
30.5479
28.8062
27.9475
27.9475
28.8062
30.5479
33.216
36.863
41.537
47.2668
54.0467
61.8246
70.4943
79.8941
89.8124
100
-300
-300
-300
-300
-300
-300
-300
-300
-300
-300
-300
-300
-300
-300
100
91.1673
82.5489
74.3415
66.7099
59.7763
53.6174
48.2668
43.7247
39.9707
36.9797
34.7358
33.2423
32.5261
32.6374
33.6444
35.6254
38.6579
42.8061
48.1064
54.5548
62.0952
70.6123
79.9298
89.8168
100
-300
-300
-300
-300
-300
-300
-300
-300
-300
-300
100
89.7745
79.8194
70.3848
61.6829
53.8761
47.0711
41.3201
36.6288
32.9683
30.2903
28.5422
27.6803
27.6803
28.5422
30.2903
32.9683
36.6288
41.3201
47.0711
53.8761
61.6829
70.3848
79.8194
89.7745
100
-300
-300
-300
-300
-300
-300
-300
-300
-300
-300
-300
-300
-300
-300
100
91.6166
83.4306
75.6225
68.3418
61.6972
55.7537
50.536
46.0383
42.2394
39.1197
36.676
34.9307
33.9332
33.7553
34.4834
36.2095
39.0204
42.9858
48.1453
54.4961
61.9816
70.4839
79.8218
89.7556
100
-300
-300
-300
-300
-300
-300
-300
-300
-300
-300
100
89.7501
79.7713
70.3141
61.5915
53.7661
46.9449
41.1802
36.4778
32.8086
30.1242
28.3719
27.508
27.508
28.3719
30.1242
32.8086
36.4778
41.1802
46.9449
53.7661
61.5915
70.3141
79.7713
89.7501
100
-300
-300
-300
-300
-300
-300
-300
-300
-300
-300
-300
-300
-300
-300
100
92.2026
84.582
77.2988
70.4838
64.2287
58.5831
53.5582
49.1383
45.2974
42.0197
39.3181
37.2424
35.8742
35.3156
35.6771
37.0676
39.5847
43.3043
48.2697
54.4798
61.8786
70.3469
79.6986
89.6836
100
-300
-300
-300
-300
-300
-300
-300
-300
-300
-300
100
89.7348
79.741
70.2697
61.534
53.6969
46.8655
41.0922
36.3827
32.7081
30.0197
28.2648
27.3996
27.3996
28.2648
30.0197
32.7081
36.3827
41.0922
46.8655
53.6969
61.534
70.2697
79.741
89.7348
100
-300
-300
-300
-300
-300
-300
-300
-300
-300
-300
-300
-300
-300
-300
100
92.9327
86.0185
79.3949
73.171
67.418
62.1661
57.4078
53.1101
49.2344
45.7633
42.7283
40.2199
38.3682
37.3176
37.2095
38.1724
40.315
43.7192
48.4319
54.4547
61.7346
70.1534
79.5221
89.5792
100
-300
-300
-300
-300
-300
-300
-300
-300
-300
-300
100
89.7254
79.7224
70.2424
61.4987
53.6544
46.8167
41.0382
36.3244
32.6464
29.9556
28.199
27.333
27.333
28.199
29.9556
32.6464
36.3244
41.0381
46.8167
53.6544
61.4987
70.2424
79.7224
89.7254
100
-300
-300
-300
-300
-300
-300
-300
-300
-300
-300
-300
-300
-300
-300
100
93.8105
87.748
81.9248
76.4262
71.3005
66.555
62.1574
58.0465
54.1556
50.4507
46.981
43.9037
41.4253
39.7492
39.054
39.4879
41.1686
44.1819
48.5773
54.3609
61.4856
69.8407
79.2398
89.4117
100
-300
-300
-300
-300
-300
-300
-300
-300
-300
-300
100
89.7197
79.7112
70.226
61.4775
53.6289
46.7875
41.0057
36.2894
32.6093
29.9171
28.1596
27.2931
27.2931
28.1596
29.9171
32.6093
36.2893
41.0057
46.7875
53.6289
61.4775
70.226
79.7112
89.7197
100
-300
-300
-300
-300
-300
-300
-300
-300
-300
-300
-300
-300
-300
-300
100
94.833
89.7658
84.8846
80.2505
75.8887
71.7823
67.8688
64.0451
60.1884
56.2097
52.1577
48.32
45.0308
42.5729
41.1628
40.9623
42.0915
44.6349
48.6426
54.1262
61.0506
69.3229
78.7735
89.1315
100
-300
-300
-300
-300
-300
-300
-300
-300
-300
-300
100
89.7164
79.7047
70.2164
61.4651
53.614
46.7703
40.9867
36.2689
32.5877
29.8945
28.1365
27.2697
27.2697
28.1365
29.8945
32.5877
36.2689
40.9867
46.7703
53.614
61.4651
70.2164
79.7047
89.7164
100
-300
-300
-300
-300
-300
-300
-300
-300
-300
-300
-300
-300
-300
-300
100
95.9889
92.0504
88.2457
84.6135
81.1594
77.8455
74.5799
71.2062
67.5028
63.2324
58.3481
53.4597
49.1226
45.7091
43.4571
42.5234
43.0168
45.0122
48.5562
53.6663
60.3267
68.4786
77.9987
88.6508
100
-300
-300
-300
-300
-300
-300
-300
-300
-300
-300
100
89.7145
79.7009
70.2109
61.458
53.6055
46.7605
40.9759
36.2571
32.5753
29.8816
28.1233
27.2564
27.2564
28.1233
29.8816
32.5753
36.2571
40.9759
46.7605
53.6054
61.458
70.2109
79.7009
89.7145
100
-300
-300
-300
-300
-300
-300
-300
-300
-300
-300
-300
-300
-300
-300
100
97.2571
94.561
91.95
89.4448
87.0387
84.6855
82.2796
79.6202
76.3505
71.8909
65.6403
59.2297
53.5526
49.0159
45.8189
44.077
43.8673
45.2441
48.2445
52.8902
59.1894
67.1378
76.7084
87.7936
100
-300
-300
-300
-300
-300
-300
-300
-300
-300
-300
100
89.7134
79.6989
70.2079
61.454
53.6007
46.7551
40.9698
36.2506
32.5683
29.8744
28.1159
27.2489
27.2489
28.1159
29.8744
32.5683
36.2506
40.9698
46.7551
53.6007
61.454
70.2078
79.6988
89.7134
100
-300
-300
-300
-300
-300
-300
-300
-300
-300
-300
-300
-300
-300
-300
100
98.607
97.2368
95.9075
94.6273
93.3885
92.1575
90.855
89.3064
87.0999
83.1322
74.0146
65.3268
58.0281
52.2719
48.0921
45.5139
44.5641
45.2676
47.6451
51.7159
57.5072
65.0761
74.549
86.1557
100
-300
-300
-300
-300
-300
-300
-300
-300
-300
-300
100
89.7129
79.6977
70.2062
61.4519
53.5981
46.7521
40.9665
36.247
32.5646
29.8705
28.1119
27.2448
27.2448
28.1118
29.8705
32.5645
36.247
40.9665
46.752
53.598
61.4518
70.2062
79.6977
89.7128
100
-300
-300
-300
-300
-300
-300
-300
-300
-300
-300
-300
-300
-300
-300
100
100
100
100
100
100
100
100
100
100
100
82.6632
70.9538
62.0584
55.1885
50.1029
46.7273
45.0413
45.041
46.7264
50.1015
55.1866
62.0561
70.9512
82.661
100
100
100
100
100
100
100
100
100
100
100
100
89.7125
79.6971
70.2053
61.4507
53.5967
46.7505
40.9647
36.2451
32.5625
29.8684
28.1097
27.2426
27.2426
28.1097
29.8684
32.5625
36.245
40.9647
46.7504
53.5966
61.4507
70.2052
79.6971
89.7125
100
-300
-300
-300
-300
-300
-300
-300
-300
-300
-300
-300
-300
-300
-300
-300
-300
-300
-300
-300
-300
-300
-300
-300
-300
100
86.1557
74.5483
65.0746
57.5048
51.7126
47.6409
45.2626
44.5585
45.5076
48.0853
52.2647
58.0207
65.3194
74.0075
83.1259
87.094
89.3009
90.8499
92.1529
93.3845
94.624
95.9049
97.235
98.6061
100
100
89.7124
79.6968
70.2048
61.4501
53.596
46.7496
40.9638
36.2441
32.5615
29.8673
28.1086
27.2415
27.2415
28.1085
29.8672
32.5614
36.244
40.9637
46.7495
53.5958
61.45
70.2047
79.6967
89.7123
100
-300
-300
-300
-300
-300
-300
-300
-300
-300
-300
-300
-300
-300
-300
-300
-300
-300
-300
-300
-300
-300
-300
-300
-300
100
87.7918
76.7046
67.1321
59.1818
52.8809
48.2337
45.232
43.8541
44.063
45.8042
49.0007
53.5372
59.2143
65.6252
71.8764
76.3366
79.6071
82.2675
84.6746
87.0292
89.4369
91.9439
94.5568
97.2549
100
100
89.7123
79.6966
70.2046
61.4498
53.5956
46.7492
40.9633
36.2436
32.5609
29.8667
28.108
27.2408
27.2408
28.1079
29.8666
32.5608
36.2434
40.9631
46.749
53.5953
61.4496
70.2044
79.6965
89.7122
100
-300
-300
-300
-300
-300
-300
-300
-300
-300
-300
-300
-300
-300
-300
-300
-300
-300
-300
-300
-300
-300
-300
-300
-300
100
88.6468
77.9907
68.4668
60.3113
53.6478
48.535
44.9886
42.9913
42.4964
43.429
45.6803
49.0934
53.4306
58.3194
63.2044
67.476
71.1809
74.5565
77.8244
81.141
84.5982
88.2339
92.0423
95.9848
100
100
89.7123
79.6965
70.2045
61.4497
53.5954
46.749
40.9631
36.2433
32.5606
29.8664
28.1076
27.2405
27.2404
28.1075
29.8662
32.5603
36.2429
40.9626
46.7485
53.5949
61.4492
70.2041
79.6963
89.7121
100
-300
-300
-300
-300
-300
-300
-300
-300
-300
-300
-300
-300
-300
-300
-300
-300
-300
-300
-300
-300
-300
-300
-300
-300
100
89.124
78.7586
69.301
61.0224
54.0922
48.6037
44.5918
42.045
40.9133
41.1118
42.5207
44.978
48.2673
52.1056
56.159
60.1397
63.999
67.8261
71.7438
75.8552
80.2226
84.8631
89.7511
94.8256
100
100
89.7122
79.6965
70.2044
61.4496
53.5953
46.7489
40.963
36.2431
32.5605
29.8662
28.1074
27.2402
27.2401
28.1071
29.8657
32.5598
36.2424
40.9621
46.7479
53.5944
61.4487
70.2037
79.696
89.712
100
-300
-300
-300
-300
-300
-300
-300
-300
-300
-300
-300
-300
-300
-300
-300
-300
-300
-300
-300
-300
-300
-300
-300
-300
100
89.3983
79.2135
69.8021
61.4357
54.3009
48.5086
44.1058
41.0866
39.4013
38.9641
39.6572
41.3323
43.8109
46.8893
50.3613
54.0696
57.9653
62.0822
66.4872
71.2414
76.3771
81.8869
87.7221
93.7974
100
100
89.7122
79.6965
70.2044
61.4495
53.5952
46.7488
40.9629
36.243
32.5603
29.866
28.1071
27.2399
27.2397
28.1066
29.8651
32.5591
36.2416
40.9612
46.7471
53.5935
61.4479
70.203
79.6955
89.7117
100
-300
-300
-300
-300
-300
-300
-300
-300
-300
-300
-300
-300
-300
-300
-300
-300
-300
-300
-300
-300
-300
-300
-300
-300
100
89.5562
79.4766
70.0867
61.6485
54.3513
48.3134
43.5883
40.1739
38.0234
37.0549
37.1594
38.2083
40.0602
42.5706
45.6096
49.0866
52.9704
57.2785
62.0494
67.3163
73.0865
79.3296
85.974
92.9102
100
100
89.7122
79.6965
70.2044
61.4495
53.5952
46.7487
40.9628
36.2429
32.5601
29.8658
28.1068
27.2394
27.2391
28.1058
29.8642
32.558
36.2403
40.9598
46.7455
53.592
61.4465
70.2019
79.6947
89.7113
100
-300
-300
-300
-300
-300
-300
-300
-300
-300
-300
-300
-300
-300
-300
-300
-300
-300
-300
-300
-300
-300
-300
-300
-300
100
89.6447
79.622
70.2347
61.7336
54.3057
48.0704
43.0839
39.3472
36.817
35.417
35.0495
35.6053
36.9738
39.053
41.7613
45.0489
48.9035
53.3408
58.3869
64.0578
70.3418
77.189
84.5072
92.1647
100
100
89.7122
79.6965
70.2043
61.4495
53.5951
46.7487
40.9627
36.2427
32.5599
29.8654
28.1062
27.2387
27.2381
28.1045
29.8625
32.556
36.238
40.9573
46.7429
53.5894
61.4441
70.1998
79.6932
89.7105
100
-300
-300
-300
-300
-300
-300
-300
-300
-300
-300
-300
-300
-300
-300
-300
-300
-300
-300
-300
-300
-300
-300
-300
-300
100
89.6916
79.6956
70.299
61.7428
54.2094
47.8171
42.6229
38.6297
35.7972
34.0557
33.3177
33.491
34.4891
36.2401
38.6948
41.831
45.6522
50.1785
55.4313
61.4162
68.1083
75.4421
83.3077
91.5543
100
100
89.7122
79.6964
70.2043
61.4494
53.5951
46.7486
40.9625
36.2424
32.5594
29.8647
28.1053
27.2374
27.2364
28.1023
29.8598
32.5527
36.2341
40.953
46.7384
53.5849
61.4399
70.1963
79.6907
89.7092
100
-300
-300
-300
-300
-300
-300
-300
-300
-300
-300
-300
-300
-300
-300
-300
-300
-300
-300
-300
-300
-300
-300
-300
-300
100
89.7136
79.7264
70.3142
61.7105
54.093
47.578
42.222
38.0291
34.962
32.9562
31.9335
31.8151
32.5322
34.035
36.2965
39.3141
43.1041
47.6923
53.0992
59.3247
66.3347
74.0515
82.3512
91.0672
100
100
89.7122
79.6964
70.2043
61.4494
53.595
46.7484
40.9622
36.242
32.5587
29.8637
28.1039
27.2353
27.2336
28.0987
29.8552
32.5471
36.2276
40.9457
46.7307
53.5772
61.4328
70.1903
79.6863
89.7069
100
-300
-300
-300
-300
-300
-300
-300
-300
-300
-300
-300
-300
-300
-300
-300
-300
-300
-300
-300
-300
-300
-300
-300
-300
100
89.7209
79.7322
70.3021
61.6584
53.9748
47.3655
41.8863
37.5418
34.2969
32.0916
30.8546
30.5174
31.0249
32.3422
34.4586
37.385
41.1484
45.7797
51.3004
57.7072
64.9598
72.9715
81.6074
90.688
100
100
89.7122
79.6964
70.2042
61.4493
53.5948
46.7481
40.9617
36.2413
32.5576
29.8621
28.1015
27.232
27.2291
28.0928
29.8477
32.538
36.217
40.9338
46.718
53.5645
61.421
70.1803
79.679
89.7031
100
-300
-300
-300
-300
-300
-300
-300
-300
-300
-300
-300
-300
-300
-300
-300
-300
-300
-300
-300
-300
-300
-300
-300
-300
100
89.7192
79.7231
70.275
61.5982
53.8636
47.1836
41.6127
37.156
33.7799
31.4275
30.033
29.5354
29.889
31.0703
33.0794
35.9377
39.6796
44.3409
49.9444
56.4855
63.9194
72.153
81.043
90.4
100
100
89.7122
79.6963
70.2041
61.4491
53.5945
46.7476
40.961
36.2401
32.5559
29.8595
28.0977
27.2268
27.222
28.0834
29.8358
32.5234
36.1998
40.9145
46.6974
53.5438
61.4016
70.1639
79.6671
89.6967
100
-300
-300
-300
-300
-300
-300
-300
-300
-300
-300
-300
-300
-300
-300
-300
-300
-300
-300
-300
-300
-300
-300
-300
-300
100
89.7115
79.7043
70.2383
61.5345
53.7612
47.0291
41.3922
36.8549
33.3848
30.9272
29.42
28.8077
29.0513
30.1348
32.0666
34.8751
38.6006
43.2826
48.9456
55.5842
63.1507
71.5476
80.6252
90.1868
100
100
89.7121
79.6963
70.204
61.4489
53.5941
46.747
40.9599
36.2384
32.5532
29.8555
28.092
27.2187
27.2109
28.0688
29.8171
32.5005
36.1727
40.8839
46.6646
53.5106
61.3704
70.1374
79.6477
89.6865
100
-300
-300
-300
-300
-300
-300
-300
-300
-300
-300
-300
-300
-300
-300
-300
-300
-300
-300
-300
-300
-300
-300
-300
-300
100
89.6985
79.6766
70.1929
61.4662
53.6637
46.8946
41.2117
36.619
33.0845
30.5546
28.9699
28.2782
28.4453
29.4608
31.3384
34.1117
37.8254
42.5218
48.2268
54.9348
62.5962
71.1104
80.3232
90.0326
100
100
89.7121
79.6962
70.2038
61.4485
53.5935
46.746
40.9583
36.2359
32.5493
29.8497
28.0835
27.2066
27.1943
28.0467
29.7887
32.4653
36.131
40.8365
46.6134
53.4585
61.3212
70.0952
79.6168
89.6701
100
-300
-300
-300
-300
-300
-300
-300
-300
-300
-300
-300
-300
-300
-300
-300
-300
-300
-300
-300
-300
-300
-300
-300
-300
100
89.6792
79.6381
70.1348
61.3879
53.5632
46.7687
41.0559
36.428
32.8524
30.2761
28.641
27.8973
28.0139
28.9839
30.8251
33.5747
37.2805
41.987
47.7213
54.4777
62.2057
70.8023
80.1103
89.9238
100
100
89.712
79.696
70.2035
61.448
53.5927
46.7446
40.956
36.2322
32.5437
29.8411
28.071
27.1888
27.1698
28.0139
29.7464
32.4126
36.0679
40.7643
46.5349
53.378
61.2446
70.0293
79.5682
89.6443
100
-300
-300
-300
-300
-300
-300
-300
-300
-300
-300
-300
-300
-300
-300
-300
-300
-300
-300
-300
-300
-300
-300
-300
-300
100
89.6508
79.5831
70.0565
61.2896
53.4476
46.6371
40.9077
36.261
32.6634
30.0615
28.3974
27.6229
27.7088
28.6508
30.4692
33.2041
36.9053
41.6192
47.3737
54.1634
61.937
70.5902
79.9637
89.8489
100
100
89.7119
79.6958
70.2031
61.4474
53.5915
46.7426
40.9528
36.2271
32.5357
29.8291
28.0532
27.1634
27.1345
27.9665
29.6848
32.3353
35.9746
40.6566
46.4167
53.2558
61.1274
69.9276
79.4928
89.604
100
-300
-300
-300
-300
-300
-300
-300
-300
-300
-300
-300
-300
-300
-300
-300
-300
-300
-300
-300
-300
-300
-300
-300
-300
100
89.6085
79.5029
69.9457
61.1568
53.3009
46.4823
40.7481
36.0973
32.4941
29.8839
28.2086
27.4203
27.4912
28.4186
30.2249
32.952
36.6516
41.3712
47.1398
53.9519
61.7563
70.4476
79.8651
89.7985
100
100
89.7118
79.6956
70.2026
61.4464
53.5899
46.74
40.9484
36.2201
32.5248
29.8124
28.0286
27.128
27.0851
27.8995
29.597
32.2243
35.8396
40.4992
46.2421
53.0734
60.9505
69.7726
79.3769
89.5419
100
-300
-300
-300
-300
-300
-300
-300
-300
-300
-300
-300
-300
-300
-300
-300
-300
-300
-300
-300
-300
-300
-300
-300
-300
100
89.5448
79.3835
69.7843
60.9692
53.1018
46.2832
40.5562
35.9158
32.3227
29.7202
28.0491
27.2614
27.3302
28.254
30.0566
32.7816
36.482
41.2068
46.9853
53.8127
61.6375
70.3538
79.8003
89.7654
100
100
89.7117
79.6952
70.202
61.4453
53.5879
46.7364
40.9426
36.2107
32.5101
29.7901
27.9953
27.0799
27.0175
27.8073
29.4752
32.0688
35.6483
40.2738
45.989
52.8054
60.6872
69.539
79.2002
89.4463
100
-300
-300
-300
-300
-300
-300
-300
-300
-300
-300
-300
-300
-300
-300
-300
-300
-300
-300
-300
-300
-300
-300
-300
-300
100
89.4482
79.2044
69.5463
60.6988
52.8229
46.0141
40.3085
35.6946
32.1284
29.5497
27.8977
27.124
27.202
28.1314
29.9374
32.6652
36.369
41.0987
46.8847
53.7226
61.5608
70.2935
79.7586
89.7441
100
100
89.7115
79.6948
70.2011
61.4437
53.5852
46.7319
40.9351
36.1986
32.4911
29.7608
27.9516
27.0163
26.9275
27.6836
29.3103
31.856
35.3837
39.9577
45.6289
52.4181
60.3
69.1896
78.9321
89.2997
100
-300
-300
-300
-300
-300
-300
-300
-300
-300
-300
-300
-300
-300
-300
-300
-300
-300
-300
-300
-300
-300
-300
-300
-300
100
89.3009
78.9347
69.1941
60.307
52.4286
45.6439
39.9784
35.4111
31.8913
29.3543
27.737
26.9904
27.0884
28.032
29.8479
32.5827
36.2922
41.0274
46.8196
53.6649
61.5121
70.2553
79.7323
89.7307
100
100
89.7113
79.6943
70.2001
61.4418
53.5819
46.7263
40.9258
36.1834
32.467
29.7237
27.8958
26.9346
26.8109
27.522
29.0928
31.5723
35.0262
39.5243
45.1266
51.8671
59.7374
68.6705
78.525
89.0733
100
-300
-300
-300
-300
-300
-300
-300
-300
-300
-300
-300
-300
-300
-300
-300
-300
-300
-300
-300
-300
-300
-300
-300
-300
100
89.074
78.5265
68.6731
59.7416
51.8732
45.1353
39.5363
35.0421
31.5928
29.1183
27.5529
26.8473
26.9762
27.9423
29.774
32.52
36.2375
40.9791
46.777
53.628
61.4815
70.2315
79.716
89.7224
100
100
89.711
79.6936
70.1989
61.4396
53.5779
46.7195
40.9144
36.1649
32.4375
29.6779
27.8266
26.8324
26.6642
27.3169
28.8138
31.2041
34.5556
38.944
44.4405
51.0967
58.9292
67.9018
77.9031
88.7182
100
-300
-300
-300
-300
-300
-300
-300
-300
-300
-300
-300
-300
-300
-300
-300
-300
-300
-300
-300
-300
-300
-300
-300
-300
100
88.7186
77.904
67.9033
58.9316
51.1003
44.4455
38.9509
34.5646
31.2157
28.8283
27.3344
26.6848
26.856
27.8528
29.7064
32.4675
36.1955
40.9446
46.7482
53.6041
61.4621
70.2167
79.706
89.7173
100
100
89.7107
79.6929
70.1975
61.437
53.5734
46.7115
40.901
36.1429
32.4023
29.6231
27.7431
26.7087
26.4851
27.0641
28.4665
30.74
33.9533
38.1877
43.5259
50.0406
57.7826
66.7658
76.941
88.1436
100
-300
-300
-300
-300
-300
-300
-300
-300
-300
-300
-300
-300
-300
-300
-300
-300
-300
-300
-300
-300
-300
-300
-300
-300
100
88.1438
76.9415
66.7666
57.7839
50.0425
43.5287
38.1915
33.9584
30.7464
28.4745
27.0738
26.4964
26.7217
27.7577
29.6389
32.4189
36.1598
40.9177
46.7275
53.5878
61.4495
70.2074
79.6998
89.7142
100
100
89.7104
79.6922
70.196
61.4342
53.5683
46.7026
40.8858
36.1177
32.3618
29.5595
27.6458
26.5632
26.273
26.7624
28.0477
30.1732
33.2065
37.2315
42.3404
48.627
56.1824
65.0917
75.4225
87.1628
100
-300
-300
-300
-300
-300
-300
-300
-300
-300
-300
-300
-300
-300
-300
-300
-300
-300
-300
-300
-300
-300
-300
-300
-300
100
87.163
75.4228
65.0922
56.1831
48.6281
42.3419
37.2336
33.2092
30.1767
28.052
26.7676
26.2792
26.5703
27.6537
29.5681
32.3708
36.1269
40.8948
46.7112
53.5761
61.441
70.2014
79.6959
89.7123
100
100
89.7102
79.6916
70.1946
61.4314
53.5629
46.693
40.8692
36.09
32.3168
29.4883
27.536
26.398
26.0303
26.4142
27.5595
29.5047
32.3124
36.0645
40.8563
46.7949
54.0046
62.6484
72.9709
85.3392
100
-300
-300
-300
-300
-300
-300
-300
-300
-300
-300
-300
-300
-300
-300
-300
-300
-300
-300
-300
-300
-300
-300
-300
-300
100
85.3393
72.971
62.6486
54.005
46.7955
40.8571
36.0656
32.3139
29.5066
27.5618
26.4169
26.0336
26.4018
27.5402
29.4928
32.3216
36.0949
40.874
46.6976
53.5671
61.435
70.1974
79.6935
89.7112
100
100
89.7101
79.6911
70.1935
61.4288
53.5578
46.6833
40.852
36.0607
32.2686
29.4113
27.4164
26.2168
25.7621
26.0264
27.0111
28.7456
31.2835
34.6981
39.0773
44.5235
51.163
59.1858
68.9683
81.4968
100
100
100
100
100
100
100
100
100
100
100
100
100
100
100
100
100
100
100
100
100
100
100
100
100
100
81.4969
68.9684
59.1859
51.1632
44.5238
39.0778
34.6987
31.2843
28.7465
27.0123
26.0278
25.7638
26.2187
27.4186
29.4137
32.2711
36.0632
40.8545
46.6857
53.5599
61.4307
70.1949
79.6921
89.7106
100
100
89.7102
79.6912
70.193
61.4271
53.5535
46.6745
40.8354
36.0315
32.2194
29.3316
27.2912
26.0254
25.4767
25.6106
26.4184
27.918
30.1499
33.1723
37.0549
41.8734
47.708
54.6432
62.7574
72.0076
81.4968
85.3392
87.1628
88.1435
88.718
89.073
89.2992
89.4454
89.5401
89.601
89.639
89.661
89.671
89.671
89.661
89.639
89.601
89.5401
89.4454
89.2992
89.073
88.718
88.1435
87.1628
85.3392
81.4968
72.0076
62.7574
54.6433
47.7081
41.8735
37.0551
33.1726
30.1503
27.9185
26.419
25.6113
25.4776
26.0264
27.2923
29.3328
32.2207
36.0328
40.8367
46.6757
53.5546
61.4281
70.1938
79.6917
89.7104
100
100
89.7108
79.6921
70.1939
61.4272
53.5514
46.668
40.8212
36.0045
32.1722
29.2531
27.1658
25.8315
25.185
25.1824
25.8038
27.0539
28.9576
31.5543
34.8896
39.0052
43.9254
49.6345
56.0238
62.7574
68.9683
72.9708
75.4225
76.9408
77.9029
78.5245
78.9311
79.1984
79.3736
79.4869
79.558
79.5994
79.6183
79.6183
79.5994
79.558
79.4869
79.3736
79.1984
78.9311
78.5245
77.9029
76.9408
75.4225
72.9708
68.9683
62.7574
56.0238
49.6346
43.9255
39.0053
34.8897
31.5544
28.9577
27.0541
25.8041
25.1827
25.1855
25.832
27.1664
29.2537
32.1728
36.0052
40.8218
46.6686
53.5519
61.4276
70.1943
79.6924
89.7109
100
100
89.7122
79.6948
70.1973
61.4304
53.5531
46.666
40.8121
35.9832
32.131
29.1811
27.0472
25.6445
24.9001
24.7603
25.1937
26.1912
27.7615
29.9251
32.7042
36.1104
40.1284
44.6903
49.6345
54.6432
59.1857
62.6483
65.0916
66.7656
67.9014
68.6698
69.1883
69.5365
69.7681
69.9195
70.0153
70.0712
70.0969
70.0969
70.0712
70.0153
69.9195
69.7681
69.5365
69.1883
68.6698
67.9014
66.7656
65.0916
62.6483
59.1858
54.6432
49.6345
44.6903
40.1285
36.1105
32.7042
29.9252
27.7616
26.1913
25.1939
24.7605
24.9003
25.6448
27.0475
29.1814
32.1313
35.9835
40.8124
46.6663
53.5533
61.4306
70.1975
79.6949
89.7123
100
100
89.7151
79.7003
70.2049
61.4392
53.5615
46.6718
40.812
35.9721
32.1014
29.1223
26.9439
25.4754
24.6366
24.3643
24.6159
25.3691
26.6177
28.3649
30.614
33.3561
36.555
40.1284
43.9254
47.708
51.163
54.0046
56.1823
57.7824
58.9288
59.7366
60.2984
60.6842
60.9451
61.1178
61.2279
61.2927
61.3225
61.3225
61.2927
61.2279
61.1178
60.9451
60.6842
60.2984
59.7366
58.9288
57.7824
56.1823
54.0046
51.163
47.708
43.9254
40.1285
36.555
33.3561
30.614
28.3649
26.6177
25.3692
24.616
24.3644
24.6367
25.4756
26.944
29.1224
32.1016
35.9722
40.8121
46.672
53.5616
61.4393
70.205
79.7004
89.7151
100
100
89.7204
79.7105
70.2194
61.4569
53.581
46.6907
40.8268
35.9778
32.091
29.0854
26.8661
25.3369
24.4104
24.0149
24.0977
24.6245
25.5761
26.942
28.7116
30.864
33.3561
36.1104
39.0052
41.8734
44.5234
46.7949
48.6269
50.0403
51.0962
51.8661
52.4163
52.8022
53.0675
53.2454
53.36
53.4278
53.4592
53.4592
53.4278
53.36
53.2454
53.0675
52.8022
52.4163
51.8661
51.0962
50.0403
48.6269
46.7949
44.5234
41.8734
39.0052
36.1104
33.3561
30.864
28.7116
26.942
25.5762
24.6245
24.0977
24.015
24.4104
25.3369
26.8661
29.0854
32.091
35.9779
40.8268
46.6907
53.581
61.457
70.2195
79.7105
89.7204
100
100
89.7294
79.7283
70.2451
61.4893
53.6181
46.7301
40.865
36.01
32.1102
29.0821
26.827
25.2438
24.239
23.7333
23.6651
23.9902
24.6786
25.7093
27.0626
28.7116
30.614
32.7042
34.8896
37.0548
39.0773
40.8563
42.3403
43.5256
44.44
45.1256
45.6271
45.9857
46.2362
46.4062
46.5167
46.5826
46.6132
46.6132
46.5826
46.5167
46.4062
46.2362
45.9857
45.6271
45.1256
44.44
43.5256
42.3403
40.8563
39.0773
37.0548
34.8896
32.7042
30.614
28.7116
27.0626
25.7093
24.6786
23.9902
23.6652
23.7334
24.239
25.2438
26.827
29.0821
32.1103
36.0101
40.8651
46.7302
53.6181
61.4893
70.2451
79.7283
89.7294
100
100
89.7445
79.7578
70.2881
61.5442
53.6827
46.8015
40.9395
36.0825
32.1742
29.1285
26.8438
25.2148
24.1428
23.5421
23.3438
23.4954
23.9589
24.7053
25.7093
26.942
28.3649
29.9251
31.5543
33.1723
34.6981
36.0644
37.2314
38.1875
38.9435
39.5233
39.956
40.2706
40.4936
40.6467
40.7471