# vtk DataFile Version 2.0
LBE two cylinders
ASCII
DATASET STRUCTURED_POINTS
DIMENSIONS 76 76 1
ASPECT_RATIO 1 1 1
ORIGIN 0 0 0
POINT_DATA 5776
SCALARS temp double 1
LOOKUP_TABLE default
100
100
100
100
100
100
100
100
100
100
100
100
100
100
100
100
100
100
100
100
100
100
100
100
100
100
-300
-300
-300
-300
-300
-300
-300
-300
-300
-300
-300
-300
-300
-300
100
100
100
100
100
100
100
100
100
100
100
100
100
100
100
100
100
100
100
100
100
100
100
100
100
100
-300
-300
-300
-300
-300
-300
-300
-300
-300
-300
100
98.3932
96.8373
95.3784
94.0541
92.8904
91.901
91.0882
90.4452
89.9587
89.6128
89.3923
89.2852
89.2852
89.3923
89.6128
89.9587
90.4452
91.0882
91.901
92.8904
94.0541
95.3784
96.8373
98.3932
100
-300
-300
-300
-300
-300
-300
-300
-300
-300
-300
-300
-300
-300
-300
100
98.3934
96.8377
95.379
94.0548
92.8912
91.9018
91.0891
90.4461
89.9596
89.6136
89.393
89.2859
89.2858
89.3927
89.6132
89.959
90.4454
91.0884
91.9011
92.8904
94.0542
95.3785
96.8373
98.3932
100
-300
-300
-300
-300
-300
-300
-300
-300
-300
-300
100
96.8371
93.7745
90.903
88.2962
86.0055
84.058
82.4583
81.1926
80.235
79.5542
79.1201
78.9094
78.9094
79.1201
79.5542
80.235
81.1926
82.4583
84.058
86.0055
88.2962
90.903
93.7745
96.8371
100
-300
-300
-300
-300
-300
-300
-300
-300
-300
-300
-300
-300
-300
-300
100
96.8376
93.7755
90.9044
88.298
86.0075
84.0602
82.4606
81.1949
80.2372
79.5562
79.1219
78.911
78.9107
79.1212
79.5551
80.2357
81.1931
82.4587
84.0583
86.0057
88.2963
90.9031
93.7746
96.8372
100
-300
-300
-300
-300
-300
-300
-300
-300
-300
-300
100
95.3779
90.9023
86.7059
82.8965
79.5489
76.703
74.3653
72.5157
71.1163
70.1215
69.4871
69.1792
69.1792
69.4871
70.1215
71.1163
72.5157
74.3653
76.703
79.5489
82.8965
86.7059
90.9023
95.3779
100
-300
-300
-300
-300
-300
-300
-300
-300
-300
-300
-300
-300
-300
-300
100
95.3789
90.9043
86.7089
82.9002
79.5532
76.7077
74.3701
72.5205
71.121
70.1258
69.4911
69.1827
69.1822
69.4895
70.1234
71.1178
72.5168
74.3661
76.7035
79.5493
82.8967
86.706
90.9023
95.3779
100
-300
-300
-300
-300
-300
-300
-300
-300
-300
-300
100
94.0525
88.2936
82.894
77.9923
73.685
70.0231
67.0152
64.6354
62.8349
61.5548
60.7387
60.3425
60.3425
60.7387
61.5548
62.8349
64.6354
67.0152
70.0231
73.685
77.9923
82.894
88.2936
94.0525
100
-300
-300
-300
-300
-300
-300
-300
-300
-300
-300
-300
-300
-300
-300
100
94.0547
88.2977
82.9
77.9998
73.6936
70.0325
67.025
64.6451
62.8443
61.5636
60.7466
60.3495
60.3484
60.7435
61.5587
62.8379
64.6376
67.0168
70.0242
73.6857
77.9928
82.8943
88.2937
94.0526
100
-300
-300
-300
-300
-300
-300
-300
-300
-300
-300
100
92.8867
85.9988
79.5408
73.6783
68.5267
64.1472
60.5498
57.7037
55.5504
54.0196
53.0435
52.5698
52.5698
53.0435
54.0196
55.5504
57.7037
60.5498
64.1472
68.5267
73.6783
79.5408
85.9988
92.8867
100
-300
-300
-300
-300
-300
-300
-300
-300
-300
-300
-300
-300
-300
-300
100
92.8908
86.0069
79.5524
73.6929
68.5436
64.1656
60.5689
57.7228
55.5688
54.0367
53.059
52.5834
52.5813
53.053
54.0271
55.5562
57.708
60.5529
64.1493
68.5281
73.6792
79.5413
85.999
92.8868
100
-300
-300
-300
-300
-300
-300
-300
-300
-300
-300
100
91.8932
84.0434
76.6835
70.0024
64.1315
59.1405
55.0409
51.7976
49.3438
47.5993
46.4871
45.9472
45.9472
46.4871
47.5993
49.3438
51.7976
55.0409
59.1405
64.1315
70.0024
76.6835
84.0434
91.8932
100
-300
-300
-300
-300
-300
-300
-300
-300
-300
-300
-300
-300
-300
-300
100
91.9011
84.0588
76.7056
70.0302
64.1636
59.1755
55.0774
51.8339
49.3789
47.6321
46.5167
45.9732
45.9693
46.5052
47.6138
49.3549
51.8058
55.0469
59.1445
64.1342
70.004
76.6844
84.0439
91.8934
100
-300
-300
-300
-300
-300
-300
-300
-300
-300
-300
100
91.0731
82.4292
74.3249
66.968
60.5034
55.0077
50.4937
46.9224
44.2206
42.2999
41.0753
40.481
40.481
41.0753
42.2999
44.2206
46.9224
50.4937
55.0077
60.5034
66.968
74.3249
82.4292
91.0731
100
-300
-300
-300
-300
-300
-300
-300
-300
-300
-300
-300
-300
-300
-300
100
91.0877
82.4577
74.3658
67.0194
60.5629
55.0726
50.5612
46.99
44.2858
42.3608
41.1303
40.5291
40.5219
41.109
42.3268
44.2413
46.9377
50.5046
55.0151
60.5082
66.9709
74.3265
82.43
91.0734
100
-300
-300
-300
-300
-300
-300
-300
-300
-300
-300
100
90.4171
81.1381
72.4383
64.5409
57.6015
51.7022
46.8567
43.0233
40.1233
38.0617
36.7472
36.1092
36.1092
36.7472
38.0617
40.1233
43.0233
46.8567
51.7022
57.6015
64.5409
72.4383
81.1381
90.4171
100
-300
-300
-300
-300
-300
-300
-300
-300
-300
-300
-300
-300
-300
-300
100
90.4435
81.1895
72.5122
64.6338
57.7089
51.8194
46.9788
43.1455
40.2412
38.1718
36.8468
36.1965
36.1833
36.8082
38.1102
40.1606
43.0509
46.8763
51.7154
57.6099
64.546
72.441
81.1394
90.4177
100
-300
-300
-300
-300
-300
-300
-300
-300
-300
-300
100
89.9086
80.1372
70.9758
62.6596
55.3521
49.14
44.0377
40.0012
36.9475
34.7767
33.3927
32.7209
32.7209
33.3927
34.7767
36.9475
40.0012
44.0377
49.14
55.3521
62.6596
70.9758
80.1372
89.9086
100
-300
-300
-300
-300
-300
-300
-300
-300
-300
-300
-300
-300
-300
-300
100
89.955
80.2276
71.1058
62.8229
55.5412
49.3464
44.2528
40.2165
37.1555
34.971
33.5684
32.8749
32.8517
33.5002
34.8622
37.0131
40.0496
44.0719
49.163
55.3666
62.6681
70.9804
80.1394
89.9094
100
-300
-300
-300
-300
-300
-300
-300
-300
-300
-300
100
89.5265
79.3852
69.877
61.246
53.662
47.2149
41.9197
37.7306
34.5616
32.3088
30.8726
30.1754
30.1754
30.8726
32.3088
34.5616
37.7306
41.9197
47.2149
53.662
61.246
69.877
79.3852
89.5265
100
-300
-300
-300
-300
-300
-300
-300
-300
-300
-300
-300
-300
-300
-300
100
89.6058
79.5399
70.0995
61.5258
53.9861
47.569
42.2889
38.1005
34.919
32.6428
31.1747
30.4402
30.4002
31.0572
32.4555
34.6739
37.8133
41.9779
47.2537
53.6862
61.2599
69.8842
79.3884
89.5277
100
-300
-300
-300
-300
-300
-300
-300
-300
-300
-300
100
89.2482
78.8373
69.0765
60.2162
52.4308
45.8126
40.3769
36.0767
32.8237
30.5112
29.037
28.3214
28.3214
29.037
30.5112
32.8237
36.0767
40.3769
45.8126
52.4308
60.2162
69.0765
78.8373
89.2482
100
-300
-300
-300
-300
-300
-300
-300
-300
-300
-300
-300
-300
-300
-300
100
89.3804
79.0953
69.4478
60.6833
52.9722
46.4045
40.9944
36.6958
33.4223
31.0709
29.5434
28.7652
28.6979
29.346
30.7564
33.011
36.2141
40.473
45.8761
52.4698
60.238
69.0872
78.8417
89.2496
100
-300
-300
-300
-300
-300
-300
-300
-300
-300
-300
100
89.0515
78.4503
68.511
59.4887
51.5611
44.822
39.2871
34.9085
31.5961
29.2415
27.7404
27.0118
27.0118
27.7404
29.2415
31.5961
34.9085
39.2871
44.822
51.5611
59.4887
68.511
78.4503
89.0515
100
-300
-300
-300
-300
-300
-300
-300
-300
-300
-300
-300
-300
-300
-300
100
89.2662
78.8693
69.1143
60.2482
52.4421
45.7858
40.2935
35.9182
32.5732
30.1554
28.5675
27.7365
27.6263
28.2443
29.6405
31.9002
35.1305
39.4413
44.9227
51.6217
59.5214
68.526
78.4557
89.0528
100
-300
-300
-300
-300
-300
-300
-300
-300
-300
-300
100
88.9167
78.185
68.1234
58.9901
50.965
44.1432
38.5403
34.1079
30.755
28.3715
26.852
26.1145
26.1145
26.852
28.3715
30.755
34.1079
38.5403
44.1432
50.965
58.9901
68.1234
78.185
88.9167
100
-300
-300
-300
-300
-300
-300
-300
-300
-300
-300
-300
-300
-300
-300
100
89.2563
78.848
69.0786
60.1933
52.3618
45.6727
40.139
35.7133
32.3096
29.8263
28.1689
27.2679
27.0918
27.6524
29.0038
31.2353
34.4569
38.7807
44.298
51.0561
59.037
68.1428
78.1902
88.917
100
-300
-300
-300
-300
-300
-300
-300
-300
-300
-300
100
88.8271
78.0086
67.8657
58.6586
50.5687
43.6918
38.0437
33.5757
30.1958
27.7931
26.2614
25.518
25.518
26.2614
27.7931
30.1958
33.5757
38.0437
43.6918
50.5687
58.6586
67.8657
78.0086
88.8271
100
-300
-300
-300
-300
-300
-300
-300
-300
-300
-300
-300
-300
-300
-300
100
89.3503
79.0305
69.3387
60.5155
52.7266
46.0573
40.5189
36.0637
32.6071
30.0507
28.3051
27.3073
27.0326
27.4996
28.7688
30.9341
34.1089
38.4074
43.9221
50.6998
58.7216
67.8874
78.0105
88.8242
100
-300
-300
-300
-300
-300
-300
-300
-300
-300
-300
100
88.7693
77.8948
67.6993
58.4447
50.313
43.4005
37.7233
33.2322
29.8349
27.4199
25.8803
25.1331
25.1331
25.8803
27.4199
29.8349
33.2322
37.7233
43.4005
50.313
58.4447
67.6993
77.8948
88.7693
100
-300
-300
-300
-300
-300
-300
-300
-300
-300
-300
-300
-300
-300
-300
100
89.5546
79.4291
69.9127
61.2373
53.5618
46.9665
41.4594
36.9922
33.4824
30.8366
28.9732
27.8392
27.4206
27.7465
28.8858
30.9391
34.024
38.257
43.7312
50.4933
58.5228
67.7172
77.8864
88.7588
100
-300
-300
-300
-300
-300
-300
-300
-300
-300
-300
100
88.733
77.8234
67.5951
58.3106
50.1527
43.218
37.5226
33.0171
29.6088
27.1861
25.6416
24.892
24.892
25.6416
27.1861
29.6088
33.0171
37.5226
43.218
50.1527
58.3106
67.5951
77.8234
88.733
100
-300
-300
-300
-300
-300
-300
-300
-300
-300
-300
-300
-300
-300
-300
100
89.8814
80.0682
70.8356
62.4036
54.9206
48.4591
43.0222
38.5598
34.9916
32.231
30.2075
28.883
28.2597
28.3817
29.3305
31.2152
34.1591
38.2813
43.6754
50.3876
58.3959
67.5952
77.7912
88.7068
100
-300
-300
-300
-300
-300
-300
-300
-300
-300
-300
100
88.711
77.78
67.5317
58.2291
50.0552
43.107
37.4004
32.8862
29.4713
27.0439
25.4964
24.7453
24.7453
25.4964
27.0439
29.4713
32.8862
37.4004
43.107
50.0552
58.2291
67.5317
77.78
88.711
100
-300
-300
-300
-300
-300
-300
-300
-300
-300
-300
-300
-300
-300
-300
100
90.3472
80.9802
72.1556
64.0766
56.8777
50.62
45.2988
40.8603
37.2253
34.3151
32.0748
30.4875
29.5793
29.4164
30.0977
31.7441
34.4857
38.4442
43.7141
50.3408
58.3007
67.4863
77.699
88.6544
100
-300
-300
-300
-300
-300
-300
-300
-300
-300
-300
100
88.6979
77.7543
67.4942
58.1808
49.9976
43.0413
37.3282
32.8088
29.39
26.9598
25.4105
24.6586
24.6586
25.4105
26.9598
29.39
32.8088
37.3282
43.0413
49.9976
58.1808
67.4942
77.7543
88.6979
100
-300
-300
-300
-300
-300
-300
-300
-300
-300
-300
-300
-300
-300
-300
100
90.9702
82.2012
73.9261
66.3267
59.5192
53.5495
48.401
44.0119
40.3013
37.1979
34.6665
32.7217
31.4251
30.8747
31.1932
32.5166
34.9825
38.7156
43.8105
50.3121
58.1961
67.3532
77.5809
88.5856
100
-300
-300
-300
-300
-300
-300
-300
-300
-300
-300
100
88.6904
77.7396
67.4727
58.1531
49.9644
43.0036
37.2867
32.7643
29.3433
26.9115
25.3612
24.6088
24.6088
25.3612
26.9115
29.3433
32.7643
37.2867
43.0036
49.9644
58.1531
67.4727
77.7396
88.6904
100
-300
-300
-300
-300
-300
-300
-300
-300
-300
-300
-300
-300
-300
-300
100
91.7666
83.7639
76.1965
69.2207
62.9299
57.3506
52.4487
48.1475
44.3567
41.0079
38.0899
35.6646
33.8474
32.7822
32.6229
33.5233
35.6284
39.0646
43.9259
50.2569
58.0344
67.1502
77.3997
88.4793
100
-300
-300
-300
-300
-300
-300
-300
-300
-300
-300
100
88.6863
77.7314
67.4606
58.1376
49.9459
42.9826
37.2636
32.7395
29.3172
26.8846
25.3337
24.581
24.581
25.3337
26.8846
29.3172
32.7395
37.2636
42.9826
49.9459
58.1376
67.4606
77.7314
88.6863
100
-300
-300
-300
-300
-300
-300
-300
-300
-300
-300
-300
-300
-300
-300
100
92.7471
85.6904
79.0019
72.8085
67.178
62.1131
57.556
53.4043
49.5425
45.8898
42.4596
39.391
36.8854
35.1512
34.3808
34.7455
36.3948
39.4538
44.0141
50.1206
57.7547
66.8153
77.1022
88.3037
100
-300
-300
-300
-300
-300
-300
-300
-300
-300
-300
100
88.684
77.7269
67.4541
58.1292
49.9359
42.9711
37.251
32.726
29.3031
26.8699
25.3187
24.5659
24.5659
25.3187
26.8699
29.3031
32.726
37.251
42.9711
49.9359
58.1292
67.4541
77.7269
88.684
100
-300
-300
-300
-300
-300
-300
-300
-300
-300
-300
-300
-300
-300
-300
100
93.9132
87.9847
82.3512
77.1086
72.2977
67.8959
63.8162
59.9164
56.0261
52.0113
47.8918
43.9555
40.5474
37.9634
36.4355
36.1455
37.2396
39.8352
44.0184
49.835
57.2766
66.2606
76.6065
88.0066
100
-300
-300
-300
-300
-300
-300
-300
-300
-300
-300
100
88.6828
77.7245
67.4506
58.1248
49.9306
42.9651
37.2444
32.7189
29.2956
26.8622
25.3108
24.5579
24.5579
25.3108
26.8622
29.2956
32.7189
37.2444
42.9651
49.9306
58.1248
67.4506
77.7245
88.6828
100
-300
-300
-300
-300
-300
-300
-300
-300
-300
-300
-300
-300
-300
-300
100
95.2539
90.6263
86.2177
82.0938
78.2711
74.7057
71.2824
67.8068
64.0084
59.5988
54.5017
49.3656
44.7828
41.1489
38.7173
37.6599
38.1042
40.1498
43.8719
49.3173
56.4948
65.3585
75.78
87.493
100
-300
-300
-300
-300
-300
-300
-300
-300
-300
-300
100
88.6822
77.7233
67.4489
58.1225
49.9279
42.962
37.2409
32.7152
29.2917
26.8582
25.3068
24.5538
24.5538
25.3068
26.8582
29.2917
32.7152
37.2409
42.962
49.9279
58.1225
67.4489
77.7233
88.6822
100
-300
-300
-300
-300
-300
-300
-300
-300
-300
-300
-300
-300
-300
-300
100
96.7436
93.5657
90.5313
87.6794
85.0101
82.4712
79.9369
77.1715
73.7648
69.0624
62.3896
55.5253
49.4381
44.5627
41.1087
39.1976
38.9156
40.3319
43.5038
48.4761
55.2798
63.9274
74.3982
86.5712
100
-300
-300
-300
-300
-300
-300
-300
-300
-300
-300
100
88.6819
77.7227
67.448
58.1214
49.9265
42.9604
37.2392
32.7134
29.2898
26.8562
25.3047
24.5517
24.5517
25.3047
26.8562
29.2898
32.7134
37.2392
42.9604
49.9265
58.1214
67.448
77.7227
88.6819
100
-300
-300
-300
-300
-300
-300
-300
-300
-300
-300
-300
-300
-300
-300
100
98.3428
96.7245
95.1768
93.7172
92.3409
91.0103
89.6336
88.0111
85.6817
81.4264
71.5234
62.0971
54.1921
47.9659
43.4445
40.6463
39.5955
40.3207
42.8535
47.2289
53.4936
61.726
72.0758
84.798
100
-300
-300
-300
-300
-300
-300
-300
-300
-300
-300
100
88.6817
77.7224
67.4475
58.1208
49.9258
42.9597
37.2384
32.7125
29.2889
26.8552
25.3038
24.5507
24.5507
25.3037
26.8552
29.2889
32.7125
37.2384
42.9597
49.9258
58.1208
67.4475
77.7224
88.6817
100
-300
-300
-300
-300
-300
-300
-300
-300
-300
-300
-300
-300
-300
-300
100
100
100
100
100
100
100
100
100
100
100
80.9917
68.1913
58.4993
51.0397
45.5357
41.8924
40.0761
40.0761
41.8922
45.5354
51.0394
58.4988
68.1908
80.9913
100
100
100
100
100
100
100
100
100
100
100
100
88.6816
77.7223
67.4473
58.1205
49.9255
42.9593
37.238
32.7121
29.2884
26.8548
25.3033
24.5503
24.5503
25.3033
26.8548
29.2884
32.7121
37.238
42.9593
49.9255
58.1205
67.4473
77.7223
88.6816
100
-300
-300
-300
-300
-300
-300
-300
-300
-300
-300
-300
-300
-300
-300
-300
-300
-300
-300
-300
-300
-300
-300
-300
-300
100
84.798
72.0755
61.7256
53.4929
47.228
42.8524
40.3195
39.5941
40.6448
43.443
47.9643
54.1904
62.0954
71.5218
81.4249
85.6803
88.0098
89.6323
91.0092
92.3399
93.7164
95.1762
96.7241
98.3426
100
100
88.6816
77.7222
67.4472
58.1204
49.9254
42.9591
37.2378
32.7119
29.2882
26.8546
25.3031
24.55
24.55
25.3031
26.8546
29.2882
32.7119
37.2378
42.9591
49.9253
58.1204
67.4472
77.7222
88.6816
100
-300
-300
-300
-300
-300
-300
-300
-300
-300
-300
-300
-300
-300
-300
-300
-300
-300
-300
-300
-300
-300
-300
-300
-300
100
86.5707
74.3971
63.9259
55.2778
48.4737
43.5009
40.3288
38.9122
39.194
41.105
44.5589
49.4342
55.5215
62.3859
69.0587
73.7613
77.1681
79.9337
82.4684
85.0076
87.6773
90.5297
93.5646
96.7431
100
100
88.6816
77.7222
67.4472
58.1204
49.9253
42.9591
37.2377
32.7118
29.2881
26.8545
25.303
24.5499
24.5499
25.3029
26.8544
29.2881
32.7118
37.2377
42.959
49.9252
58.1203
67.4471
77.7221
88.6816
100
-300
-300
-300
-300
-300
-300
-300
-300
-300
-300
-300
-300
-300
-300
-300
-300
-300
-300
-300
-300
-300
-300
-300
-300
100
87.4918
75.7776
65.355
56.4903
49.312
43.8658
40.1431
38.0971
37.6524
38.7095
41.141
44.7748
49.3576
54.4938
59.5911
64.0009
67.7997
71.2758
74.6997
78.2658
82.0893
86.2143
90.6239
95.2527
100
100
88.6816
77.7222
67.4472
58.1203
49.9253
42.959
37.2377
32.7118
29.2881
26.8544
25.3029
24.5499
24.5499
25.3029
26.8544
29.288
32.7117
37.2376
42.9589
49.9252
58.1202
67.4471
77.7221
88.6815
100
-300
-300
-300
-300
-300
-300
-300
-300
-300
-300
-300
-300
-300
-300
-300
-300
-300
-300
-300
-300
-300
-300
-300
-300
100
88.0041
76.6017
66.2536
57.2676
49.8243
44.0062
39.8218
37.2253
36.1304
36.4199
37.9475
40.5314
43.9395
47.876
51.9958
56.0111
59.9021
63.8029
67.8838
72.287
77.0997
82.3443
87.98
93.9108
100
100
88.6816
77.7221
67.4472
58.1203
49.9253
42.959
37.2377
32.7117
29.2881
26.8544
25.3029
24.5498
24.5498
25.3028
26.8543
29.2879
32.7115
37.2374
42.9588
49.925
58.1201
67.447
77.722
88.6815
100
-300
-300
-300
-300
-300
-300
-300
-300
-300
-300
-300
-300
-300
-300
-300
-300
-300
-300
-300
-300
-300
-300
-300
-300
100
88.299
77.0928
66.8017
57.7372
50.0997
43.9903
39.4276
36.3669
34.7161
34.3505
35.1203
36.8542
39.3599
42.4288
45.8596
49.5133
53.3766
57.5301
62.0896
67.1573
72.7912
78.9884
85.6812
92.7424
100
100
88.6816
77.7221
67.4472
58.1203
49.9253
42.959
37.2377
32.7117
29.288
26.8544
25.3028
24.5498
24.5497
25.3027
26.8541
29.2877
32.7113
37.2372
42.9585
49.9247
58.1198
67.4467
77.7218
88.6814
100
-300
-300
-300
-300
-300
-300
-300
-300
-300
-300
-300
-300
-300
-300
-300
-300
-300
-300
-300
-300
-300
-300
-300
-300
100
88.4703
77.3819
67.1243
58.0011
50.2172
43.8807
39.015
35.5754
33.4677
32.5655
32.7237
33.7884
35.6056
38.0315
40.9507
44.3014
48.0949
52.3996
57.306
62.8908
69.1879
76.171
83.7464
91.7577
100
100
88.6816
77.7221
67.4472
58.1203
49.9252
42.959
37.2377
32.7117
29.288
26.8543
25.3028
24.5497
24.5496
25.3025
26.8538
29.2874
32.7109
37.2367
42.9579
49.9242
58.1193
67.4463
77.7215
88.6812
100
-300
-300
-300
-300
-300
-300
-300
-300
-300
-300
-300
-300
-300
-300
-300
-300
-300
-300
-300
-300
-300
-300
-300
-300
100
88.5689
77.5481
67.3053
58.1345
50.2387
43.7271
38.6241
34.8846
32.4139
31.0872
30.7667
31.3161
32.6128
34.5588
37.0924
40.1993
43.9149
48.3105
53.4672
59.4469
66.2662
73.879
82.169
90.9538
100
100
88.6816
77.7221
67.4472
58.1203
49.9252
42.959
37.2376
32.7117
29.288
26.8542
25.3026
24.5495
24.5493
25.3021
26.8533
29.2867
32.7101
37.2357
42.9569
49.9231
58.1183
67.4454
77.7209
88.6809
100
-300
-300
-300
-300
-300
-300
-300
-300
-300
-300
-300
-300
-300
-300
-300
-300
-300
-300
-300
-300
-300
-300
-300
-300
100
88.6244
77.6399
67.4
58.1899
50.2086
43.564
38.2795
34.3096
31.5595
29.9071
29.2221
29.3833
30.2917
31.8811
34.1255
37.0419
40.6858
45.136
50.472
56.7477
63.9679
72.0711
80.9223
90.3178
100
100
88.6816
77.7221
67.4471
58.1203
49.9252
42.959
37.2376
32.7116
29.2879
26.8541
25.3024
24.5491
24.5487
25.3013
26.8523
29.2854
32.7085
37.234
42.955
49.9211
58.1164
67.4438
77.7197
88.6803
100
-300
-300
-300
-300
-300
-300
-300
-300
-300
-300
-300
-300
-300
-300
-300
-300
-300
-300
-300
-300
-300
-300
-300
-300
100
88.6541
77.6875
67.4438
58.2017
50.156
43.4123
37.9927
33.8506
30.8918
28.9967
28.0415
27.9165
28.5402
29.8683
31.8989
34.6706
38.2544
42.7372
48.2001
54.6931
62.2133
70.6876
79.9669
89.8299
100
100
88.6816
77.7221
67.4471
58.1203
49.9252
42.9589
37.2375
32.7115
29.2877
26.8538
25.3019
24.5484
24.5478
25.3
26.8505
29.2831
32.7057
37.2307
42.9514
49.9174
58.1128
67.4407
77.7174
88.6791
100
-300
-300
-300
-300
-300
-300
-300
-300
-300
-300
-300
-300
-300
-300
-300
-300
-300
-300
-300
-300
-300
-300
-300
-300
100
88.6686
77.709
67.4586
58.191
50.0977
43.282
37.7644
33.4975
30.3873
28.3164
27.1662
26.8353
27.2545
28.3948
30.2705
32.9352
36.4715
40.9736
46.5249
53.174
60.9129
69.6605
79.2565
89.4669
100
100
88.6816
77.7221
67.4471
58.1203
49.9252
42.9589
37.2374
32.7113
29.2874
26.8533
25.3012
24.5473
24.5461
25.2976
26.8474
29.2791
32.7007
37.2249
42.9449
49.9107
58.1065
67.4352
77.7134
88.6769
100
-300
-300
-300
-300
-300
-300
-300
-300
-300
-300
-300
-300
-300
-300
-300
-300
-300
-300
-300
-300
-300
-300
-300
-300
100
88.6739
77.7152
67.457
58.1695
50.0418
43.1752
37.5886
33.2339
30.0174
27.823
26.5359
26.0607
26.3366
27.3449
29.1109
31.6987
35.1994
39.7126
45.3244
52.083
59.9772
68.9202
78.744
89.2048
100
100
88.6816
77.7221
67.4471
58.1203
49.9251
42.9588
37.2372
32.711
29.2869
26.8525
25.2999
24.5453
24.5432
25.2936
26.842
29.2721
32.6921
37.2147
42.9337
49.899
58.0952
67.4255
77.7062
88.6731
100
-300
-300
-300
-300
-300
-300
-300
-300
-300
-300
-300
-300
-300
-300
-300
-300
-300
-300
-300
-300
-300
-300
-300
-300
100
88.6733
77.7114
67.4449
58.1421
49.99
43.0885
37.4551
33.041
29.7524
27.4742
26.094
25.5206
25.6987
26.6167
28.3072
30.8414
34.3164
38.8359
44.4883
51.3219
59.3234
68.4023
78.3851
89.0211
100
100
88.6816
77.7221
67.4471
58.1202
49.925
42.9586
37.237
32.7105
29.286
26.8511
25.2977
24.542
24.5385
25.2869
26.8329
29.2603
32.6774
37.1975
42.9144
49.8789
58.0758
67.4086
77.6936
88.6664
100
-300
-300
-300
-300
-300
-300
-300
-300
-300
-300
-300
-300
-300
-300
-300
-300
-300
-300
-300
-300
-300
-300
-300
-300
100
88.6677
77.699
67.4237
58.1086
49.9396
43.0151
37.3517
32.8995
29.5643
27.2318
25.7908
25.153
25.2668
26.1249
27.765
30.2631
33.7203
38.2434
43.9225
50.806
58.8797
68.0505
78.1411
88.8962
100
100
88.6816
77.7221
67.4471
58.1201
49.9249
42.9584
37.2365
32.7097
29.2847
26.8489
25.2943
24.5368
24.5308
25.276
26.818
29.2409
32.6533
37.1688
42.8823
49.8451
58.043
67.3799
77.6723
88.655
100
-300
-300
-300
-300
-300
-300
-300
-300
-300
-300
-300
-300
-300
-300
-300
-300
-300
-300
-300
-300
-300
-300
-300
-300
100
88.6564
77.6767
67.3907
58.0648
49.8841
42.9457
37.2649
32.7907
29.4282
27.0632
25.5851
24.9073
24.9806
25.8007
27.4085
29.8833
33.3287
37.854
43.5502
50.4663
58.5872
67.8183
77.9801
88.8138
100
100
88.6815
77.7221
67.447
58.12
49.9247
42.958
37.2358
32.7085
29.2826
26.8455
25.2889
24.5286
24.5187
25.2588
26.7945
29.21
32.6145
37.1225
42.8299
49.7897
57.9888
67.3323
77.6366
88.6358
100
-300
-300
-300
-300
-300
-300
-300
-300
-300
-300
-300
-300
-300
-300
-300
-300
-300
-300
-300
-300
-300
-300
-300
-300
100
88.637
77.6398
67.3394
58.0027
49.8139
42.8687
37.1806
32.6972
29.3224
26.9412
25.4435
24.7435
24.7934
25.5911
27.1795
29.64
33.0783
37.605
43.3121
50.2488
58.3998
67.6696
77.8768
88.7608
100
100
88.6815
77.722
67.4469
58.1199
49.9244
42.9574
37.2348
32.7067
29.2795
26.8405
25.2809
24.5163
24.5004
25.2326
26.7583
29.1621
32.5538
37.0493
42.7465
49.7006
57.901
67.2545
77.578
88.6043
100
-300
-300
-300
-300
-300
-300
-300
-300
-300
-300
-300
-300
-300
-300
-300
-300
-300
-300
-300
-300
-300
-300
-300
-300
100
88.6051
77.5801
67.259
57.9095
49.7151
42.7695
37.0835
32.6023
29.2277
26.8438
25.34
24.6311
24.6703
25.4566
27.0347
29.4875
32.922
37.4498
43.1638
50.1135
58.2832
67.5769
77.8124
88.7279
100
100
88.6815
77.722
67.4468
58.1196
49.9239
42.9566
37.2333
32.704
29.2751
26.8331
25.2692
24.4981
24.4733
25.1935
26.704
29.0896
32.4613
36.9367
42.6168
49.5606
57.7615
67.1296
77.4831
88.5529
100
-300
-300
-300
-300
-300
-300
-300
-300
-300
-300
-300
-300
-300
-300
-300
-300
-300
-300
-300
-300
-300
-300
-300
-300
100
88.5534
77.4845
67.1323
57.7665
49.569
42.6301
36.9563
32.4889
29.1269
26.7525
25.2544
24.5473
24.5854
25.3687
26.9432
29.393
32.8262
37.3553
43.0738
50.0314
58.2125
67.5207
77.7734
88.7079
100
100
88.6815
77.7219
67.4466
58.1193
49.9233
42.9554
37.2312
32.7004
29.2688
26.8228
25.2525
24.4723
24.4344
25.137
26.625
28.9833
32.324
36.7678
42.4198
49.3451
57.5438
66.9322
77.3316
88.4701
100
-300
-300
-300
-300
-300
-300
-300
-300
-300
-300
-300
-300
-300
-300
-300
-300
-300
-300
-300
-300
-300
-300
-300
-300
100
88.4704
77.3324
66.9338
57.5467
49.3499
42.4272
36.7787
32.3394
29.0039
26.6518
25.1707
24.4753
24.5205
25.3075
26.8836
29.334
32.7679
37.2987
43.0203
49.9828
58.1708
67.4876
77.7504
88.6961
100
100
88.6814
77.7218
67.4464
58.1189
49.9225
42.9539
37.2284
32.6954
29.2603
26.8086
25.2297
24.4367
24.3804
25.0581
26.5134
28.8315
32.126
36.5208
42.1276
49.0203
57.2102
66.6246
77.0916
88.3375
100
-300
-300
-300
-300
-300
-300
-300
-300
-300
-300
-300
-300
-300
-300
-300
-300
-300
-300
-300
-300
-300
-300
-300
-300
100
88.3377
77.092
66.6255
57.2118
49.0229
42.1316
36.5267
32.1343
28.8427
26.5279
25.0762
24.4025
24.4626
25.2593
26.8414
29.2954
32.7318
37.2648
42.9889
49.9546
58.1467
67.4686
77.7372
88.6893
100
100
88.6814
77.7217
67.4461
58.1183
49.9214
42.9518
37.2247
32.689
29.2492
26.79
25.1995
24.3891
24.3079
24.9511
26.3608
28.6217
31.8485
36.1696
41.7048
48.5411
56.7074
66.1501
76.7134
88.125
100
-300
-300
-300
-300
-300
-300
-300
-300
-300
-300
-300
-300
-300
-300
-300
-300
-300
-300
-300
-300
-300
-300
-300
-300
100
88.1252
76.7136
66.1506
56.7082
48.5425
41.707
36.1727
31.8529
28.6275
26.3684
24.9606
24.3195
24.4027
25.2151
26.8072
29.2676
32.7081
37.2438
42.9703
49.9383
58.1329
67.4578
77.7298
88.6855
100
100
88.6813
77.7215
67.4458
58.1176
49.9201
42.9493
37.2201
32.6808
29.2351
26.7663
25.1608
24.3278
24.2138
24.8109
26.1589
28.3407
31.4717
35.6845
41.1091
47.8498
55.9617
65.4249
76.1167
87.7806
100
-300
-300
-300
-300
-300
-300
-300
-300
-300
-300
-300
-300
-300
-300
-300
-300
-300
-300
-300
-300
-300
-300
-300
-300
100
87.7807
76.1169
65.4252
55.9622
47.8505
41.1102
35.6861
31.4739
28.3436
26.1628
24.8158
24.2197
24.3348
25.1688
26.7751
29.2445
32.6906
37.2299
42.9588
49.9287
58.1251
67.4518
77.7257
88.6835
100
100
88.6812
77.7213
67.4454
58.1168
49.9185
42.9463
37.2145
32.6708
29.2178
26.7371
25.1129
24.2515
24.0957
24.6336
25.9009
27.9771
30.9767
35.0356
40.2938
46.8768
54.8755
64.3242
75.1682
87.2076
100
-300
-300
-300
-300
-300
-300
-300
-300
-300
-300
-300
-300
-300
-300
-300
-300
-300
-300
-300
-300
-300
-300
-300
-300
100
87.2077
75.1683
64.3243
54.8758
46.8772
40.2943
35.0364
30.9778
27.9786
25.9028
24.6361
24.0987
24.255
25.1169
26.7415
29.2225
32.6757
37.2194
42.951
49.9228
58.1206
67.4484
77.7234
88.6823
100
100
88.6812
77.7211
67.445
58.1159
49.9166
42.9428
37.2081
32.6592
29.1974
26.7025
25.0558
24.16
23.953
24.4176
25.5833
27.5239
30.3502
34.1979
39.2149
45.5469
53.3271
62.6667
73.638
86.2072
100
-300
-300
-300
-300
-300
-300
-300
-300
-300
-300
-300
-300
-300
-300
-300
-300
-300
-300
-300
-300
-300
-300
-300
-300
100
86.2072
73.6381
62.6668
53.3272
45.5471
39.2151
34.1983
30.3507
27.5246
25.5842
24.4188
23.9545
24.1617
25.0578
26.7046
29.1997
32.6615
37.2104
42.9451
49.9188
58.1177
67.4464
77.7221
88.6817
100
100
88.6811
77.7209
67.4445
58.1149
49.9147
42.9389
37.2008
32.646
29.1742
26.663
24.9903
24.0543
23.7872
24.1644
25.2074
26.9813
29.5887
33.16
37.8433
43.796
51.1859
60.2076
71.1254
84.3139
100
-300
-300
-300
-300
-300
-300
-300
-300
-300
-300
-300
-300
-300
-300
-300
-300
-300
-300
-300
-300
-300
-300
-300
-300
100
84.3139
71.1254
60.2076
51.1859
43.7961
37.8434
33.1602
29.589
26.9816
25.2079
24.165
23.7878
24.0551
24.9912
26.664
29.1753
32.6471
37.2019
42.94
49.9157
58.1158
67.4452
77.7214
88.6813
100
100
88.6811
77.7208
67.4441
58.114
49.9126
42.9349
37.193
32.6318
29.149
26.6197
24.918
23.9369
23.6019
23.8796
24.781
26.3592
28.7041
31.9332
36.1831
41.6034
48.3624
56.684
66.9753
80.2765
100
100
100
100
100
100
100
100
100
100
100
100
100
100
100
100
100
100
100
100
100
100
100
100
100
100
80.2765
66.9753
56.684
48.3625
41.6034
36.1831
31.9333
28.7042
26.3594
24.7812
23.8799
23.6022
23.9373
24.9184
26.6201
29.1495
32.6323
37.1936
42.9354
49.9131
58.1144
67.4444
77.721
88.6812
100
100
88.6811
77.7208
67.4439
58.1133
49.9109
42.931
37.1853
32.6172
29.1228
26.5742
24.8416
23.812
23.4035
23.5727
24.3181
25.6783
27.7257
30.5583
34.2887
39.0354
44.9148
52.038
60.4958
70.2349
80.2765
84.3139
86.2071
87.2076
87.7806
88.125
88.3374
88.4698
88.5522
88.6029
88.6333
88.6503
88.6579
88.6579
88.6503
88.6333
88.6029
88.5522
88.4698
88.3374
88.125
87.7806
87.2076
86.2071
84.3139
80.2765
70.2349
60.4958
52.038
44.9148
39.0354
34.2888
30.5583
27.7258
25.6784
24.3182
23.5728
23.4037
23.8122
24.8418
26.5744
29.1231
32.6174
37.1855
42.9312
49.9111
58.1135
67.4441
77.7209
88.6811
100
100
88.6813
77.7211
67.4442
58.1132
49.9098
42.9279
37.1783
32.6033
29.0971
26.5288
24.7643
23.6849
23.2002
23.2563
23.8383
24.9682
26.6986
29.1034
32.2659
36.264
41.1524
46.9343
53.5026
60.4958
66.9753
71.1254
73.638
75.1682
76.1167
76.7132
77.0912
77.3309
77.4819
77.5755
77.6319
77.6635
77.6776
77.6776
77.6635
77.6319
77.5755
77.4819
77.3309
77.0912
76.7132
76.1167
75.1682
73.638
71.1254
66.9753
60.4958
53.5026
46.9343
41.1524
36.264
32.2659
29.1034
26.6986
24.9682
23.8384
23.2563
23.2002
23.6849
24.7644
26.5289
29.0972
32.6035
37.1784
42.928
49.9099
58.1133
67.4443
77.7211
88.6813
100
100
88.6818
77.722
67.4454
58.1142
49.9101
42.9264
37.1732
32.5916
29.0739
26.4862
24.6904
23.5615
23.0013
22.9449
23.3639
24.2632
25.6751
27.6496
30.2408
33.4914
37.4109
41.9458
46.9343
52.038
56.684
60.2076
62.6667
64.3241
65.4248
66.1499
66.6241
66.9314
67.1278
67.2511
67.3259
67.368
67.3869
67.3869
67.368
67.3259
67.2511
67.1278
66.9314
66.6241
66.1499
65.4248
64.3241
62.6667
60.2076
56.684
52.038
46.9343
41.9458
37.4109
33.4914
30.2408
27.6496
25.6751
24.2632
23.3639
22.945
23.0013
23.5616
24.6904
26.4862
29.0739
32.5917
37.1733
42.9264
49.9101
58.1143
67.4454
77.7221
88.6818
100
100
88.6829
77.7241
67.4482
58.1175
49.9131
42.9281
37.1719
32.5843
29.0558
26.4499
24.6245
23.4489
22.8169
22.6535
22.9172
23.5971
24.7065
26.2737
28.329
30.8895
33.94
37.4109
41.1524
44.9148
48.3624
51.1858
53.3271
54.8755
55.9616
56.7071
57.2097
57.5428
57.7594
57.8971
57.9813
58.0292
58.0507
58.0507
58.0292
57.9813
57.8971
57.7594
57.5428
57.2097
56.7071
55.9616
54.8755
53.3271
51.1858
48.3624
44.9148
41.1524
37.4109
33.94
30.8895
28.329
26.2737
24.7065
23.5971
22.9173
22.6535
22.8169
23.4489
24.6245
26.4499
29.0558
32.5843
37.1719
42.9282
49.9132
58.1175
67.4483
77.7241
88.6829
100
100
88.6851
77.7284
67.4543
58.1249
49.9211
42.9357
37.1772
32.5846
29.0467
26.4246
24.5723
23.3542
22.6569
22.3962
22.5187
22.9994
23.8354
25.0372
26.6171
28.5762
30.8895
33.4914
36.264
39.0354
41.6034
43.796
45.5469
46.8767
47.8497
48.5409
49.0198
49.344
49.5584
49.6964
49.7818
49.8306
49.8527
49.8527
49.8306
49.7818
49.6964
49.5584
49.344
49.0198
48.5409
47.8497
46.8767
45.5469
43.796
41.6034
39.0354
36.264
33.4914
30.8895
28.5762
26.6171
25.0372
23.8354
22.9994
22.5187
22.3962
22.6569
23.3542
24.5723
26.4246
29.0467
32.5846
37.1772
42.9357
49.9212
58.1249
67.4543
77.7284
88.6851
100
100
88.6892
77.7364
67.4658
58.1394
49.9379
42.9533
37.194
32.5979
29.0525
26.4166
24.5412
23.2861
22.5318
22.186
22.1855
22.4933
23.0932
23.982
25.1593
26.6171
28.329
30.2408
32.2659
34.2887
36.1831
37.8433
39.2148
40.2937
41.109
41.7046
42.1271
42.4187
42.6147
42.7425
42.8223
42.8682
42.8891
42.8891
42.8682
42.8223
42.7425
42.6147
42.4187
42.1271
41.7046
41.109
40.2937
39.2148
37.8433
36.1831
34.2887
32.2659
30.2408
28.329
26.6171
25.1593
23.982
23.0932
22.4933
22.1855
22.186
22.5318
23.2861
24.5412
26.4166
29.0525
32.5979
37.194
42.9533
49.9379
58.1394
67.4658
77.7364
88.6892
100
100
88.6966
77.751
67.487
58.1664
49.9695
42.9882
37.2302
32.6327
29.0821
26.4356
24.5413
23.2554
22.4535
22.0366
21.9332
22.0968
22.5011
23.1324
23.982
25.0372
26.2737
27.6496
29.1034
30.5583
31.9332
33.16
34.1979
35.0355
35.6844
36.1694
36.5203
36.7668
36.9348