# vtk DataFile Version 2.0
LBE two cylinders
ASCII
DATASET STRUCTURED_POINTS
DIMENSIONS 76 76 1
ASPECT_RATIO 1 1 1
ORIGIN 0 0 0
POINT_DATA 5776
SCALARS temp double 1
LOOKUP_TABLE default
100
100
100
100
100
100
100
100
100
100
100
100
100
100
100
100
100
100
100
100
100
100
100
100
100
100
-300
-300
-300
-300
-300
-300
-300
-300
-300
-300
-300
-300
-300
-300
100
100
100
100
100
100
100
100
100
100
100
100
100
100
100
100
100
100
100
100
100
100
100
100
100
100
-300
-300
-300
-300
-300
-300
-300
-300
-300
-300
100
99.1425
98.3011
97.4915
96.728
96.0232
95.388
94.831
94.3591
93.9769
93.688
93.4944
93.3973
93.3973
93.4944
93.688
93.9769
94.3591
94.831
95.388
96.0232
96.728
97.4915
98.3011
99.1425
100
-300
-300
-300
-300
-300
-300
-300
-300
-300
-300
-300
-300
-300
-300
100
99.1488
98.3136
97.5097
96.7512
96.0507
95.4188
94.8642
94.3936
94.0118
93.7224
93.5275
93.4284
93.4259
93.5202
93.7108
93.9966
94.3757
94.8448
95.3991
96.0319
96.7346
97.4962
98.3041
99.1439
100
-300
-300
-300
-300
-300
-300
-300
-300
-300
-300
100
98.2996
96.6313
95.0258
93.5117
92.1142
90.8546
89.7502
88.8143
88.0566
87.4837
87.0997
86.9072
86.9072
87.0997
87.4837
88.0566
88.8143
89.7502
90.8546
92.1142
93.5117
95.0258
96.6313
98.2996
100
-300
-300
-300
-300
-300
-300
-300
-300
-300
-300
-300
-300
-300
-300
100
98.3134
96.6583
95.0652
93.5621
92.1738
90.9214
89.8221
88.8891
88.1322
87.5582
87.1714
86.9746
86.9693
87.1556
87.533
88.0992
88.8504
89.78
90.8787
92.1331
93.526
95.0359
96.6377
98.3027
100
-300
-300
-300
-300
-300
-300
-300
-300
-300
-300
100
97.4852
95.0178
92.6435
90.4043
88.3374
86.4746
84.8413
83.4571
82.3365
81.4891
80.9213
80.6366
80.6366
80.9213
81.4891
82.3365
83.4571
84.8413
86.4746
88.3374
90.4043
92.6435
95.0178
97.4852
100
-300
-300
-300
-300
-300
-300
-300
-300
-300
-300
-300
-300
-300
-300
100
97.5086
95.0638
92.7105
90.4898
88.4387
86.5881
84.9635
83.5843
82.4651
81.6158
81.0432
80.7512
80.742
81.0163
81.5728
82.4088
83.5182
84.8917
86.5153
88.3693
90.4283
92.6606
95.0288
97.4905
100
-300
-300
-300
-300
-300
-300
-300
-300
-300
-300
100
96.7118
93.4855
90.381
87.4531
84.7506
82.3148
80.1791
78.3693
76.904
75.796
75.0536
74.6814
74.6814
75.0536
75.796
76.904
78.3693
80.1791
82.3148
84.7506
87.4531
90.381
93.4855
96.7118
100
-300
-300
-300
-300
-300
-300
-300
-300
-300
-300
-300
-300
-300
-300
100
96.7484
93.5576
90.4858
87.587
84.9091
82.4925
80.3705
78.5685
77.1054
75.9945
75.2444
74.8607
74.8463
75.2021
75.9269
77.0169
78.4646
80.2577
82.3781
84.8
87.4903
90.4074
93.5024
96.72
100
-300
-300
-300
-300
-300
-300
-300
-300
-300
-300
100
95.9897
92.0551
88.2688
84.698
81.402
78.4314
75.8268
73.6195
71.8325
70.4813
69.5759
69.1219
69.1219
69.5759
70.4813
71.8325
73.6195
75.8268
78.4314
81.402
84.698
88.2688
92.0551
95.9897
100
-300
-300
-300
-300
-300
-300
-300
-300
-300
-300
-300
-300
-300
-300
100
96.0449
92.1635
88.4266
84.8997
81.6408
78.6992
76.1151
73.9197
72.1359
70.7802
69.8632
69.3918
69.37
69.7991
70.6779
72.0019
73.7624
75.9445
78.526
81.4759
84.7534
88.3081
92.0802
96.0019
100
-300
-300
-300
-300
-300
-300
-300
-300
-300
-300
100
95.3271
90.7424
86.3305
82.1697
78.3292
74.8678
71.8328
69.2609
67.1787
65.6042
64.5492
64.0202
64.0202
64.5492
65.6042
67.1787
69.2609
71.8328
74.8678
78.3292
82.1697
86.3305
90.7424
95.3271
100
-300
-300
-300
-300
-300
-300
-300
-300
-300
-300
-300
-300
-300
-300
100
95.4083
90.9019
86.5626
82.4664
78.6803
75.2617
72.257
69.7024
67.625
66.0438
64.9716
64.417
64.3847
64.8768
65.8925
67.4268
69.4699
72.0047
75.0057
78.4366
82.2502
86.3875
90.7787
95.3447
100
-300
-300
-300
-300
-300
-300
-300
-300
-300
-300
100
94.7294
89.5582
84.582
79.889
75.5574
71.6532
68.23
65.3292
62.9806
61.2048
60.0148
59.4182
59.4182
60.0148
61.2048
62.9806
65.3292
68.23
71.6532
75.5574
79.889
84.582
89.5582
94.7294
100
-300
-300
-300
-300
-300
-300
-300
-300
-300
-300
-300
-300
-300
-300
100
94.8467
89.7886
84.9173
80.3176
76.0646
72.2223
68.8429
65.9671
63.6255
61.8397
60.6249
59.9909
59.944
60.487
61.6198
63.3374
65.6291
68.4763
71.8502
75.7104
80.0035
84.6629
89.6096
94.7543
100
-300
-300
-300
-300
-300
-300
-300
-300
-300
-300
100
94.1994
88.5082
83.0316
77.8666
73.0994
68.8026
65.0352
61.8427
59.2579
57.3035
55.9939
55.3373
55.3373
55.9939
57.3035
59.2579
61.8427
65.0352
68.8026
73.0994
77.8666
83.0316
88.5082
94.1994
100
-300
-300
-300
-300
-300
-300
-300
-300
-300
-300
-300
-300
-300
-300
100
94.3661
88.8357
83.5083
78.4761
73.8208
69.6121
65.907
62.7502
60.1753
58.2066
56.8613
56.1511
56.0838
56.6637
57.8914
59.7625
62.266
65.382
69.0793
73.3137
78.0264
83.1441
88.5795
94.2339
100
-300
-300
-300
-300
-300
-300
-300
-300
-300
-300
100
93.7373
87.5928
81.6799
76.1036
70.9566
66.3176
62.2502
58.8034
56.0127
53.9027
52.4888
51.7799
51.7799
52.4888
53.9027
56.0127
58.8034
62.2502
66.3176
70.9566
76.1036
81.6799
87.5928
93.7373
100
-300
-300
-300
-300
-300
-300
-300
-300
-300
-300
-300
-300
-300
-300
100
93.9709
88.0516
82.348
76.9578
71.9679
67.4525
63.4725
60.0758
57.2988
55.1684
53.7039
52.9192
52.8241
53.4246
54.7228
56.7153
59.3915
62.7307
66.6999
71.2517
76.3228
81.8338
87.69
93.7843
100
-300
-300
-300
-300
-300
-300
-300
-300
-300
-300
100
93.3413
86.8083
80.5216
74.5927
69.1203
64.188
59.8634
56.1987
53.2317
50.9882
49.4849
48.7312
48.7312
49.4849
50.9882
53.2317
56.1987
59.8634
64.188
69.1203
74.5927
80.5216
86.8083
93.3413
100
-300
-300
-300
-300
-300
-300
-300
-300
-300
-300
-300
-300
-300
-300
100
93.6639
87.4421
81.4445
75.7729
70.5178
65.7566
61.5531
57.9577
55.0093
52.7372
51.1632
50.3037
50.1709
50.7734
52.1154
54.1952
57.0032
60.5186
64.7074
69.5197
74.8881
80.728
86.9383
93.404
100
-300
-300
-300
-300
-300
-300
-300
-300
-300
-300
100
93.0077
86.1473
79.5456
73.3197
67.5731
62.3937
57.8525
54.0041
50.8885
48.5327
46.9541
46.1626
46.1626
46.9541
48.5327
50.8885
54.0041
57.8525
62.3937
67.5731
73.3197
79.5456
86.1473
93.0077
100
-300
-300
-300
-300
-300
-300
-300
-300
-300
-300
-300
-300
-300
-300
100
93.4471
87.0107
80.8031
74.928
69.478
64.5323
60.1564
56.4027
53.3122
50.9165
49.2401
48.3026
48.1196
48.7027
50.0593
52.1903
55.0877
58.7318
63.0878
68.1043
73.7106
79.8174
86.3178
93.0896
100
-300
-300
-300
-300
-300
-300
-300
-300
-300
-300
100
92.7313
85.5998
78.7372
72.2652
66.2914
60.9073
56.1867
52.1863
48.9475
46.4986
44.8576
44.0349
44.0349
44.8576
46.4986
48.9475
52.1863
56.1867
60.9073
66.2914
72.2652
78.7372
85.5998
92.7313
100
-300
-300
-300
-300
-300
-300
-300
-300
-300
-300
-300
-300
-300
-300
100
93.3216
86.7598
80.427
74.4271
68.8528
63.7837
59.286
55.4131
52.2076
49.7038
47.9293
46.9074
46.658
47.1971
48.5363
50.6801
53.6233
57.3478
61.8195
66.9854
72.7727
79.0879
85.8186
92.836
100
-300
-300
-300
-300
-300
-300
-300
-300
-300
-300
100
92.5062
85.1538
78.0787
71.4063
65.2476
59.6968
54.83
50.7057
47.3667
44.842
43.1502
42.302
42.302
43.1502
44.842
47.3667
50.7057
54.83
59.6968
65.2476
71.4063
78.0787
85.1538
92.5062
100
-300
-300
-300
-300
-300
-300
-300
-300
-300
-300
-300
-300
-300
-300
100
93.2884
86.6914
80.3191
74.2737
68.646
63.5144
58.9444
54.9897
51.6944
49.0948
47.2226
46.1058
45.7697
46.2363
47.5226
49.6383
52.5821
56.3385
60.8747
66.1376
72.0522
78.5216
85.4282
92.6369
100
-300
-300
-300
-300
-300
-300
-300
-300
-300
-300
100
92.326
84.7967
77.5514
70.7185
64.4117
58.7273
53.7435
49.5201
46.1007
43.5153
41.7829
40.9142
40.9142
41.7829
43.5153
46.1007
49.5201
53.7435
58.7273
64.4117
70.7185
77.5514
84.7967
92.326
100
-300
-300
-300
-300
-300
-300
-300
-300
-300
-300
-300
-300
-300
-300
100
93.3487
86.8075
80.4824
74.4713
68.8616
63.7284
59.1351
55.1347
51.7718
49.0854
47.1116
45.8844
45.4363
45.7971
46.9911
49.0346
51.9316
55.6708
60.2215
65.5309
71.523
78.0975
85.1319
92.4845
100
-300
-300
-300
-300
-300
-300
-300
-300
-300
-300
100
92.184
84.5155
77.1362
70.1769
63.7534
57.964
52.8879
48.5864
45.1038
42.4706
40.7062
39.8215
39.8215
40.7062
42.4706
45.1038
48.5864
52.8879
57.9639
63.7534
70.1769
77.1362
84.5155
92.184
100
-300
-300
-300
-300
-300
-300
-300
-300
-300
-300
-300
-300
-300
-300
100
93.5036
87.1107
80.9206
75.025
69.5055
64.4322
59.8645
55.8532
52.4426
49.6745
47.59
46.2311
45.6398
45.8556
46.9128
48.8361
51.6368
55.3085
59.8241
65.1321
71.1557
77.7918
84.9128
92.3702
100
-300
-300
-300
-300
-300
-300
-300
-300
-300
-300
100
92.0741
84.2977
76.8146
69.7574
63.2437
57.3728
52.2254
47.8634
44.3319
41.6617
39.8724
38.9753
38.9753
39.8724
41.6617
44.3319
47.8634
52.2254
57.3728
63.2436
69.7574
76.8146
84.2977
92.0741
100
-300
-300
-300
-300
-300
-300
-300
-300
-300
-300
-300
-300
-300
-300
100
93.7544
87.6035
81.6379
75.9408
70.5855
65.635
61.1426
57.1546
53.7143
50.8653
48.6554
47.1364
46.3629
46.3876
47.2574
49.008
51.6594
55.2121
59.6433
64.9039
70.917
77.5772
84.7516
92.2839
100
-300
-300
-300
-300
-300
-300
-300
-300
-300
-300
100
91.9904
84.1319
76.5697
69.438
62.8555
56.9226
51.7209
47.3129
43.7441
41.0457
39.2375
38.3309
38.3309
39.2375
41.0457
43.7441
47.3129
51.7209
56.9226
62.8555
69.438
76.5697
84.1319
91.9904
100
-300
-300
-300
-300
-300
-300
-300
-300
-300
-300
-300
-300
-300
-300
100
94.1024
88.2887
82.6388
77.2252
72.1109
67.3489
62.9836
59.0543
55.6005
52.6673
50.3099
48.5935
47.5895
47.3684
47.9931
49.5129
51.9586
55.3387
59.6361
64.8051
70.7697
77.4225
84.6256
92.2136
100
-300
-300
-300
-300
-300
-300
-300
-300
-300
-300
100
91.9277
84.0077
76.3863
69.1988
62.5647
56.5855
51.3431
46.9005
43.3038
40.5843
38.762
37.8483
37.8483
38.762
40.5843
43.3038
46.9005
51.343
56.5855
62.5647
69.1988
76.3863
84.0077
91.9277
100
-300
-300
-300
-300
-300
-300
-300
-300
-300
-300
-300
-300
-300
-300
100
94.5482
89.1679
83.9267
78.8845
74.0917
69.5884
65.4064
61.574
58.1228
55.0973
52.5612
50.5982
49.3035
48.7712
49.0847
50.3096
52.4891
55.6409
59.7546
64.7889
70.6704
77.2908
84.5074
92.1446
100
-300
-300
-300
-300
-300
-300
-300
-300
-300
-300
100
91.8815
83.9162
76.2512
69.0226
62.3506
56.3371
51.0647
46.5968
42.9795
40.2445
38.4117
37.4928
37.4928
38.4117
40.2444
42.9795
46.5968
51.0647
56.3371
62.3506
69.0226
76.2512
83.9162
91.8815
100
-300
-300
-300
-300
-300
-300
-300
-300
-300
-300
-300
-300
-300
-300
100
95.0912
90.2406
85.5022
80.9221
76.536
72.3683
68.4336
64.7429
61.3132
58.1823
55.4236
53.1484
51.4864
50.5645
50.4915
51.3513
53.2004
56.0658
59.9446
64.8017
70.5678
77.1366
84.3622
92.0578
100
-300
-300
-300
-300
-300
-300
-300
-300
-300
-300
100
91.848
83.8499
76.1534
68.8949
62.1954
56.1572
50.863
46.3767
42.7445
39.9982
38.1579
37.2352
37.2352
38.1579
39.9982
42.7445
46.3767
50.863
56.1571
62.1954
68.8949
76.1533
83.8499
91.848
100
-300
-300
-300
-300
-300
-300
-300
-300
-300
-300
-300
-300
-300
-300
100
95.7288
91.5023
87.3608
83.3359
79.4475
75.7017
72.0911
68.6003
65.2188
61.9652
58.9202
56.2411
54.1133
52.7078
52.1636
52.5831
54.0347
56.5539
60.1452
64.7811
70.4
76.9023
84.1432
91.9261
100
-300
-300
-300
-300
-300
-300
-300
-300
-300
-300
100
91.8242
83.8026
76.0836
68.8039
62.0848
56.0289
50.7193
46.2198
42.577
39.8227
37.977
37.0516
37.0516
37.977
39.8227
42.577
46.2198
50.7192
56.0288
62.0847
68.8039
76.0835
83.8026
91.8242
100
-300
-300
-300
-300
-300
-300
-300
-300
-300
-300
-300
-300
-300
-300
100
96.4556
92.9432
89.4899
86.114
82.8201
79.595
76.4052
73.1977
69.9121
66.5172
63.0856
59.8684
57.1445
55.1443
54.037
53.9393
54.9264
57.0391
60.2882
64.6553
70.0915
76.5118
83.7837
91.7084
100
-300
-300
-300
-300
-300
-300
-300
-300
-300
-300
100
91.8075
83.7695
76.0347
68.7401
62.0073
55.939
50.6185
46.1098
42.4596
39.6996
37.8502
36.9229
36.9229
37.8501
39.6995
42.4595
46.1097
50.6184
55.9388
62.0071
68.74
76.0346
83.7694
91.8074
100
-300
-300
-300
-300
-300
-300
-300
-300
-300
-300
-300
-300
-300
-300
100
97.2623
94.5453
91.8654
89.2298
86.6309
84.0394
81.396
78.6007
75.5098
71.9698
67.9713
64.004
60.5114
57.7906
56.0285
55.3418
55.8025
57.4505
60.3003
64.3437
69.5501
75.8621
83.1818
91.334
100
-300
-300
-300
-300
-300
-300
-300
-300
-300
-300
100
91.7959
83.7466
76.0009
68.6961
61.9537
55.8769
50.549
46.034
42.3786
39.6147
37.7627
36.834
36.834
37.7626
39.6146
42.3784
46.0337
50.5487
55.8767
61.9535
68.6959
76.0007
83.7465
91.7959
100
-300
-300
-300
-300
-300
-300
-300
-300
-300
-300
-300
-300
-300
-300
100
98.1349
96.2817
94.4486
92.6359
90.8304
88.9963
87.0602
84.8818
82.2056
78.6062
73.6397
68.568
64.0885
60.5234
58.0313
56.701
56.586
57.7174
60.1092
63.7623
68.6685
74.8137
82.1726
90.6651
100
-300
-300
-300
-300
-300
-300
-300
-300
-300
-300
100
91.7881
83.7311
75.978
68.6662
61.9174
55.8348
50.5017
45.9824
42.3235
39.557
37.7032
36.7736
36.7736
37.703
39.5568
42.3232
45.982
50.5013
55.8344
61.917
68.6658
75.9777
83.7309
91.788
100
-300
-300
-300
-300
-300
-300
-300
-300
-300
-300
-300
-300
-300
-300
100
99.055
98.1152
97.1838
96.2591
95.331
94.3735
93.3298
92.073
90.2963
87.1637
80.0843
73.3311
67.6491
63.166
59.9154
57.9208
57.2032
57.7778
59.6535
62.8355
67.3346
73.1855
80.4792
89.3895
100
-300
-300
-300
-300
-300
-300
-300
-300
-300
-300
100
91.7828
83.7207
75.9627
68.6462
61.8931
55.8066
50.4702
45.9479
42.2867
39.5184
37.6634
36.7332
36.7331
37.6631
39.518
42.2862
45.9473
50.4695
55.8059
61.8924
68.6456
75.9622
83.7204
91.7827
100
-300
-300
-300
-300
-300
-300
-300
-300
-300
-300
-300
-300
-300
-300
100
100
100
100
100
100
100
100
100
100
100
86.7093
77.6953
70.8221
65.4966
61.5432
58.9124
57.5945
57.5897
58.8983
61.5204
65.4663
70.7864
77.6584
86.6799
100
100
100
100
100
100
100
100
100
100
100
100
91.7794
83.7139
75.9526
68.6331
61.8771
55.7881
50.4494
45.9252
42.2624
39.4929
37.637
36.7064
36.7063
37.6366
39.4922
42.2615
45.9241
50.4482
55.7869
61.876
68.632
75.9518
83.7133
91.7791
100
-300
-300
-300
-300
-300
-300
-300
-300
-300
-300
-300
-300
-300
-300
-300
-300
-300
-300
-300
-300
-300
-300
-300
-300
100
89.3937
80.4807
73.1796
67.3185
62.8081
59.6145
57.7275
57.1424
57.8506
59.8371
63.0817
67.5615
73.244
80.0031
87.0945
90.2333
92.015
93.2771
94.3267
95.2906
96.226
97.1584
98.098
99.0463
100
100
91.7772
83.7095
75.9461
68.6245
61.8668
55.776
50.4358
45.9104
42.2465
39.4762
37.6197
36.6888
36.6886
37.619
39.475
42.245
45.9086
50.4338
55.774
61.8648
68.6228
75.9446
83.7085
91.7766
100
-300
-300
-300
-300
-300
-300
-300
-300
-300
-300
-300
-300
-300
-300
-300
-300
-300
-300
-300
-300
-300
-300
-300
-300
100
90.6522
82.1444
74.7685
68.6054
63.6815
60.0115
57.6042
56.4592
56.5626
57.8838
60.3696
63.9316
68.4118
73.4883
78.4632
82.0713
84.7572
86.9465
88.8951
90.7432
92.5643
94.3937
96.2445
98.1162
100
100
91.7757
83.7066
75.9419
68.619
61.8601
55.7682
50.427
45.9007
42.2361
39.4652
37.6083
36.6771
36.6767
37.6072
39.4634
42.2337
45.8978
50.4238
55.7649
61.8569
68.6162
75.9395
83.705
91.7749
100
-300
-300
-300
-300
-300
-300
-300
-300
-300
-300
-300
-300
-300
-300
-300
-300
-300
-300
-300
-300
-300
-300
-300
-300
100
91.3045
83.1225
75.773
69.4319
64.198
60.1293
57.2569
55.5896
55.1131
55.7878
57.5418
60.2588
63.7521
67.7246
71.7322
75.2846
78.3906
81.204
83.8684
86.4835
89.1087
91.7726
94.4824
97.2305
100
100
91.7748
83.7048
75.9392
68.6155
61.8557
55.7631
50.4213
45.8944
42.2292
39.4578
37.6005
36.6689
36.6683
37.5987
39.4548
42.2253
45.8897
50.4161
55.7578
61.8506
68.6109
75.9354
83.7022
91.7734
100
-300
-300
-300
-300
-300
-300
-300
-300
-300
-300
-300
-300
-300
-300
-300
-300
-300
-300
-300
-300
-300
-300
-300
-300
100
91.6592
83.6859
76.3668
69.9016
64.4236
60.0188
56.7365
54.5957
53.5859
53.6665
54.7627
56.7576
59.4823
62.7063
66.1503
69.563
72.8714
76.1067
79.329
82.5909
85.9255
89.3455
92.8454
96.4063
100
100
91.7742
83.7037
75.9374
68.6132
61.8529
55.7597
50.4174
45.89
42.2243
39.4525
37.5947
36.6627
36.6617
37.5918
39.4477
42.2181
45.8825
50.4092
55.7513
61.8447
68.6059
75.9314
83.6994
91.772
100
-300
-300
-300
-300
-300
-300
-300
-300
-300
-300
-300
-300
-300
-300
-300
-300
-300
-300
-300
-300
-300
-300
-300
-300
100
91.8509
83.9941
76.6821
70.1127
64.4318
59.7403
56.1004
53.5402
52.0558
51.6116
52.1399
53.5378
55.6667
58.3553
61.4183
64.6978
68.1131
71.6451
75.3041
79.1049
83.0541
87.1448
91.3561
95.655
100
100
91.7738
83.7029
75.9362
68.6116
61.8509
55.7573
50.4145
45.8866
42.2204
39.448
37.5897
36.6571
36.6556
37.5851
39.4406
42.2106
45.8748
50.4015
55.744
61.838
68.6001
75.9268
83.6962
91.7704
100
-300
-300
-300
-300
-300
-300
-300
-300
-300
-300
-300
-300
-300
-300
-300
-300
-300
-300
-300
-300
-300
-300
-300
-300
100
91.947
84.1429
76.813
70.1461
64.2899
59.352
55.4029
52.4783
50.5819
49.6868
49.7369
50.6481
52.3116
54.6007
57.3852
60.5536
64.0324
67.7832
71.7883
76.0362
80.5111
85.1872
90.0273
94.9835
100
100
91.7735
83.7023
75.9353
68.6103
61.8492
55.7552
50.4119
45.8835
42.2167
39.4436
37.5845
36.6511
36.6486
37.5773
39.432
42.2014
45.8653
50.3919
55.7346
61.8293
68.5924
75.9206
83.6918
91.7681
100
-300
-300
-300
-300
-300
-300
-300
-300
-300
-300
-300
-300
-300
-300
-300
-300
-300
-300
-300
-300
-300
-300
-300
-300
100
91.9853
84.1919
76.8255
70.0644
64.0539
58.9039
54.6899
51.4538
49.2069
47.9319
47.5859
48.1032
49.4004
51.3831
53.9562
57.0354
60.5567
64.4751
68.7581
73.3761
78.296
83.4757
88.8625
94.3941
100
100
91.7733
83.7018
75.9345
68.6092
61.8477
55.7532
50.4093
45.8801
42.2125
39.4384
37.5782
36.6435
36.6398
37.5672
39.4207
42.189
45.8522
50.3785
55.7214
61.8169
68.5815
75.9118
83.6856
91.7649
100
-300
-300
-300
-300
-300
-300
-300
-300
-300
-300
-300
-300
-300
-300
-300
-300
-300
-300
-300
-300
-300
-300
-300
-300
100
91.9883
84.1795
76.7648
69.9134
63.7668
58.435
53.9964
50.4978
47.9577
46.3678
45.6977
45.898
46.9058
48.6502
51.0598
54.0688
57.6215
61.6719
66.1794
71.1031
76.3963
82.0036
87.8586
93.8854
100
100
91.773
83.7012
75.9336
68.6079
61.8459
55.7508
50.4061
45.876
42.2072
39.4317
37.5698
36.6334
36.6277
37.5532
39.4049
42.1716
45.8336
50.3594
55.7025
61.7991
68.5658
75.899
83.6766
91.7603
100
-300
-300
-300
-300
-300
-300
-300
-300
-300
-300
-300
-300
-300
-300
-300
-300
-300
-300
-300
-300
-300
-300
-300
-300
100
91.9701
84.1306
76.6617
69.7255
63.4595
57.9731
53.3461
49.6296
46.8476
45.0005
44.0682
44.0152
44.7944
46.3526
48.6352
51.5894
55.1671
59.3232
64.0129
69.1877
74.7912
80.7569
87.007
93.4534
100
100
91.7727
83.7006
75.9326
68.6064
61.8437
55.7478
50.402
45.8705
42.2
39.4225
37.5584
36.6194
36.611
37.5335
39.3825
42.1469
45.8071
50.3319
55.6752
61.7733
68.5429
75.8804
83.6634
91.7534
100
-300
-300
-300
-300
-300
-300
-300
-300
-300
-300
-300
-300
-300
-300
-300
-300
-300
-300
-300
-300
-300
-300
-300
-300
100
91.9397
84.0608
76.536
69.5217
63.1521
57.5354
52.7525
48.8574
45.8791
43.8246
42.6829
42.4292
43.029
44.4422
46.6263
49.5387
53.1372
57.3786
62.216
67.5958
73.4546
79.717
86.2958
93.0923
100
100
91.7724
83.6998
75.9313
68.6044
61.8408
55.7437
50.3965
45.8631
42.1903
39.4101
37.5427
36.6
36.5876
37.506
39.351
42.1118
45.7693
50.2926
55.636
61.7361
68.5097
75.8533
83.6443
91.7435
100
-300
-300
-300
-300
-300
-300
-300
-300
-300
-300
-300
-300
-300
-300
-300
-300
-300
-300
-300
-300
-300
-300
-300
-300
100
91.9021
83.9794
76.3995
69.3143
62.8554
57.1302
52.2199
48.1809
45.0457
42.8268
41.5202
41.1096
41.5701
42.8713
44.9801
47.8614
51.4778
55.7881
60.7448
66.2907
72.3573
78.8623
85.7106
92.7951
100
100
91.7719
83.6987
75.9295
68.6018
61.837
55.7384
50.3891
45.8532
42.1772
39.393
37.5211
36.5732
36.5552
37.4678
39.3069
42.0626
45.716
50.2369
55.5802
61.6829
68.4621
75.8143
83.6165
91.7291
100
-300
-300
-300
-300
-300
-300
-300
-300
-300
-300
-300
-300
-300
-300
-300
-300
-300
-300
-300
-300
-300
-300
-300
-300
100
91.8597
83.8909
76.2572
69.108
62.5729
56.7581
51.7454
47.5923
44.3342
41.9876
40.5538
40.0229
40.3771
41.5935
43.6459
46.5049
50.1372
54.5035
59.556
65.2354
71.4692
78.17
85.2363
92.5541
100
100
91.7712
83.6974
75.9273
68.5983
61.832
55.7313
50.3793
45.8399
42.1596
39.3702
37.492
36.5369
36.511
37.4153
39.2462
41.9943
45.6416
50.1587
55.5015
61.6075
68.3943
75.7586
83.5768
91.7084
100
-300
-300
-300
-300
-300
-300
-300
-300
-300
-300
-300
-300
-300
-300
-300
-300
-300
-300
-300
-300
-300
-300
-300
-300
100
91.8131
83.7956
76.1093
68.9018
62.3014
56.4136
51.3199
47.0786
43.7269
41.2839
39.7548
39.1341
39.4096
40.5637
42.5754
45.4198
49.0667
53.4786
58.6077
64.3935
70.7603
77.6171
84.8574
92.3615
100
100
91.7704
83.6956
75.9244
68.5939
61.8255
55.722
50.3665
45.8225
42.1363
39.3398
37.4531
36.4883
36.4515
37.3442
39.1635
41.9007
45.5391
50.0504
55.3916
61.5016
68.2986
75.6795
83.5203
91.6789
100
-300
-300
-300
-300
-300
-300
-300
-300
-300
-300
-300
-300
-300
-300
-300
-300
-300
-300
-300
-300
-300
-300
-300
-300
100
91.7608
83.6908
75.9513
68.6895
62.0328
56.0858
50.9297
46.6227
43.2026
40.6902
39.0929
38.4085
38.6285
39.7392
41.7236
44.5601
48.2211
52.6704
57.8607
63.7305
70.2023
77.1819
84.559
92.2098
100
100
91.7694
83.6934
75.9207
68.5882
61.8172
55.7102
50.3499
45.7999
42.1061
39.3001
37.4021
36.4242
36.3726
37.2494
39.0525
41.7743
45.3996
49.9019
55.2399
61.3543
68.1646
75.5682
83.4403
91.637
100
-300
-300
-300
-300
-300
-300
-300
-300
-300
-300
-300
-300
-300
-300
-300
-300
-300
-300
-300
-300
-300
-300
-300
-300
100
91.6997
83.5704
75.7747
68.4601
61.7537
55.7594
50.5571
46.2042
42.738
40.1797
38.538
37.8124
37.9968
39.0806
41.0493
43.884
47.5591
52.0397
57.279
63.2149
69.7685
76.8437
84.3273
92.092
100
100
91.7681
83.6906
75.916
68.5811
61.8067
55.6952
50.329
45.7711
42.0675
39.2492
37.3364
36.341
36.2696
37.1248
38.9056
41.6059
45.2123
49.7007
55.0326
61.1513
67.9785
75.4123
83.3276
91.5778
100
-300
-300
-300
-300
-300
-300
-300
-300
-300
-300
-300
-300
-300
-300
-300
-300
-300
-300
-300
-300
-300
-300
-300
-300
100
91.6248
83.4249
75.5662
68.1977
61.4465
55.415
50.1813
45.8005
42.3087
39.7259
38.0609
37.3141
37.4806
38.5518
40.5152
43.3539
47.0439
51.5515
56.8303
62.8182
69.4354
76.5843
84.1496
92.0017
100
100
91.7665
83.6873
75.9104
68.5723
61.7938
55.6767
50.3029
45.7353
42.0191
39.185
37.253
36.2348
36.1374
36.9639
38.7143
41.3846
44.9639
49.4313
54.7523
60.8739
67.7213
75.195
83.1693
91.4942
100
-300
-300
-300
-300
-300
-300
-300
-300
-300
-300
-300
-300
-300
-300
-300
-300
-300
-300
-300
-300
-300
-300
-300
-300
100
91.5288
83.2407
75.3076
67.8812
61.0884
55.0292
49.7783
45.3874
41.8895
39.3026
37.6341
36.8844
37.0492
38.1209
40.0887
42.937
46.6434
51.1753
56.4867
62.5157
69.1822
76.3875
84.015
91.9334
100
100
91.7647
83.6833
75.9036
68.5619
61.7783
55.6542
50.2712
45.6914
41.9595
39.1056
37.1492
36.1019
35.9706
36.7592
38.469
41.0982
44.639
49.075
54.3769
60.4976
67.368
74.8926
82.9467
91.3757
100
-300
-300
-300
-300
-300
-300
-300
-300
-300
-300
-300
-300
-300
-300
-300
-300
-300
-300
-300
-300
-300
-300
-300
-300
100
91.4007
82.9981
74.9736
67.4827
60.6509
54.5743
49.3217
44.9394
41.4555
38.8847
37.2322
36.4972
36.6756
37.7603
39.7416
42.6054
46.3304
50.8851
56.2243
62.2863
68.9911
76.2395
83.914
91.8821
100
100
91.7625
83.6786
75.8958
68.5496
61.76
55.6277
50.2335
45.6388
41.8876
39.0092
37.0224
35.9384
35.764
36.5035
38.1598
40.7333
44.2202
48.6097
53.8795
59.9911
66.8845
74.4721
82.6325
91.2068
100
-300
-300
-300
-300
-300
-300
-300
-300
-300
-300
-300
-300
-300
-300
-300
-300
-300
-300
-300
-300
-300
-300
-300
-300
100
91.2245
82.6689
74.5293
66.9654
60.0989
54.018
48.7824
44.4301
40.9825
38.4492
36.8325
36.1299
36.3368
37.4466
39.4506
42.3357
46.0821
50.6593
56.0231
62.1125
68.8475
76.1288
83.8388
91.8441
100
100
91.7601
83.6734
75.8869
68.5357
61.739
55.5969
50.1894
45.5771
41.8027
38.8947
36.8707
35.7413
35.5129
36.19
37.7768
40.2762
43.6889
48.0104
53.2278
59.3147
66.2251
73.8858
82.1852
90.9624
100
-300
-300
-300
-300
-300
-300
-300
-300
-300
-300
-300
-300
-300
-300
-300
-300
-300
-300
-300
-300
-300
-300
-300
-300
100
90.9747
82.2106
73.9255
66.2812
59.3893
53.3234
48.1294
43.8333
40.4474
37.9754
36.4156
35.7635
36.014
37.161
39.1966
42.1092
45.8803
50.4807
55.8674
61.9801
68.7395
76.0463
83.783
91.8159
100
100
91.7576
83.6678
75.8772
68.5203
61.7155
55.5623
50.1395
45.5064
41.7047
38.7615
36.6931
35.5087
35.214
35.8134
37.3118
39.7144
43.0263
47.2504
52.3849
58.4191
65.3284
73.0645
81.5395
90.6004
100
-300
-300
-300
-300
-300
-300
-300
-300
-300
-300
-300
-300
-300
-300
-300
-300
-300
-300
-300
-300
-300
-300
-300
-300
100
90.6088
81.5569
73.0917
65.3666
58.4699
52.4499
47.3312
43.1242
39.8303
37.446
35.9657
35.3832
35.6927
36.8888
38.9651
41.9114
45.7108
50.3358
55.7447
61.8782
68.6577
75.9847
83.7417
91.7952
100
100
91.755
83.662
75.8671
68.504
61.6904
55.5245
50.0843
45.4276
41.5945
38.6104
36.4898
35.2403
34.866
35.3707
36.759
39.038
42.2163
46.3041
51.3113
57.2464
64.1139
71.9067
80.5873
90.0428
100
-300
-300
-300
-300
-300
-300
-300
-300
-300
-300
-300
-300
-300
-300
-300
-300
-300
-300
-300
-300
-300
-300
-300
-300
100
90.0485
80.5991
71.925
64.1396
57.2805
51.3548
46.3581
42.2817
39.1152
36.8485
35.4721
34.9786
35.3627
36.62
38.7457
41.7319
45.5635
50.2148
55.6458
61.7985
68.5953
75.9386
83.7112
91.78
100
100
91.7526
83.6566
75.8572
68.4876
61.6645
55.485
50.0256
45.3425
41.4741
38.4435
36.2631
34.9382
34.4708
34.8626
36.1175
38.2426
41.2487
45.1512
49.9706
55.7347
62.4821
70.265
79.1428
89.1293
100
-300
-300
-300
-300
-300
-300
-300
-300
-300
-300
-300
-300
-300
-300
-300
-300
-300
-300
-300
-300
-300
-300
-300
-300
100
89.133
79.1506
70.2772
62.4991
55.7573
49.9993
45.1867
41.2916
38.2933
36.1763
34.9291
34.5446
35.0184
36.3484
38.5322
41.5641
45.4315
50.1111
55.5644
61.7353
68.5475
75.9041
83.6888
91.7689
100
100
91.7506
83.652
75.8486
68.4726
61.6397
55.4458
49.9657
45.254
41.3467
38.2647
36.0175
34.6075
34.0336
34.2948
35.3925
37.3318
40.1232
43.7838
48.3395
53.8309
60.3252
67.9393
76.881
87.4841
100
-300
-300
-300
-300
-300
-300
-300
-300
-300
-300
-300
-300
-300
-300
-300
-300
-300
-300
-300
-300
-300
-300
-300
-300
100
87.4866
76.886
67.9472
60.3363
53.8456
48.3581
43.8069
40.1511
37.3646
35.4305
34.3378
34.0813
34.6593
36.0726
38.322
41.4048
45.3115
50.0209
55.497
61.6854
68.5113
75.8789
83.6728
91.7612
100
100
91.7497
83.6494
75.8427
68.4608
61.6184
55.4098
49.9083
45.1664
41.2176
38.0801
35.7601
34.2564
33.5643
33.6787
34.5968
36.3199
38.8547
42.2145
46.4223
51.5166
57.5668
64.7114
73.2674
84.0947
100
100
100
100
100
100
100
100
100
100
100
100
100
100
100
100
100
100
100
100
100
100
100
100
100
100
84.0964
73.2707
64.7165
57.5739
51.526
46.4342
42.2293
38.8724
36.3409
34.621
33.7061
33.5947
34.2894
35.7951
38.1165
41.2546
45.2029
49.9434
55.4424
61.6475
68.4855
75.8619
83.6627
91.7565
100
100
91.7504
83.65
75.8414
68.455
61.6039
55.3812
49.8584
45.0855
41.0938
37.8979
35.5008
33.897
33.0774
33.0317
33.7519
35.2331
37.4751
40.4824
44.2658
48.8438
54.2468
60.5222
67.7277
75.8342
84.0946
87.4838
89.1287
90.0419
90.5989
90.9601
91.2031
91.3701
91.4854
91.5645
91.6169
91.6488
91.6639
91.6639
91.6488
91.6169
91.5645
91.4854
91.3701
91.2031
90.9601
90.5989
90.0419
89.1288
87.4839
84.095
75.8354
67.7299
60.5255
54.2513
48.8497
44.2733
40.4916
37.4862
35.2463
33.7671
33.0489
33.0964
33.9177
35.5227
37.9208
41.1169
45.1085
49.8804
55.4017
61.6222
68.4704
75.8535
83.6583
91.7547
100
100
91.7537
83.6556
75.8476
68.4587
61.6009
55.3657
49.8225
45.0194
40.9844
37.7292
35.2526
33.545
32.5919
32.3775
32.8873
34.1088
36.0329
38.6524
41.9613
45.9517
50.6075
55.8892
61.6914
67.7276
73.2671
76.8803
79.1418
80.5856
81.5367
82.1807
82.6254
82.9356
83.1523
83.3018
83.4013
83.4622
83.491
83.491
83.4622
83.4013
83.3018
83.1523
82.9356
82.6254
82.1807
81.5367
80.5856
79.1419
76.8805
73.2675
67.7284
61.6928
55.8913
50.6103
45.9554
41.966
38.6581
36.0398
34.117
32.8967
32.3882
32.6036
33.5578
35.2662
37.7433
40.9987
45.0335
49.8362
55.3783
61.6122
68.4682
75.855
83.6608
91.7563
100
100
91.7607
83.6687
75.8647
68.4767
61.6153
55.3704
49.8094
44.9779
40.9013
37.5876
35.0318
33.2196
32.1311
31.7447
32.0386
32.9927
34.588
36.8055
39.6231
43.0102
46.9182
51.2624
55.8891
60.5219
64.7109
67.9384
70.2635
71.9042
73.0605
73.8794
74.462
74.8769
75.1708
75.3756
75.5129
75.5973
75.6373
75.6373
75.5973
75.5129
75.3756
75.1708
74.8769
74.462
73.8794
73.0605
71.9042
70.2636
67.9386
64.7112
60.5225
55.89
51.2637
46.92
43.0125
39.6259
36.809
34.5922
32.9977
32.0444
31.7512
32.1383
33.2274
35.0401
37.5962
40.91
44.9866
49.8177
55.3781
61.6222
68.4825
75.8692
83.6718
91.7623
100
100
91.7731
83.6924
75.8975
68.5154
61.655
55.4047
49.83
44.9739
40.859
37.4901
34.858
32.9437
31.7223
31.166
31.2463
31.9352
33.205
35.0264
37.3647
40.1747
43.3916
46.9182
50.6073
54.2465
57.5662
60.3241
62.4802
64.1108
65.3234
66.2172
66.872
67.3486
67.6915
67.9331
68.0966
68.1974
68.2455
68.2455
68.1974
68.0966
67.9331
67.6915
67.3486
66.872
66.2172
65.3234
64.1109
62.4803
60.3242
57.5664
54.2468
50.6078
46.9189
43.3927
40.176
37.3664
35.0285
33.2076
31.9382
31.2497
31.1699
31.7267
32.9484
34.863
37.4953
40.8643
44.9791
49.835
55.4094
61.6592
68.5189
75.9003
83.6943
91.774
100
100
91.7928
83.7307
75.9522
68.5827
61.73
55.4805
49.898
45.023
40.8754
37.4567
34.7539
32.7436
31.3959
30.6772
30.5529
30.9882
31.9479
33.3947
35.2859
37.5689
40.1746
43.0101
45.9514
48.8433
51.5159
53.8296
55.7326
57.2429
58.4134
59.3056
59.9769
60.4755
60.84
61.1
61.2774
61.3875
61.4402
61.4402
61.3875
61.2774
61.1
60.84
60.4755
59.9769
59.3056
58.4134
57.2429
55.7326
53.8297
51.516
48.8436
45.9518
43.0106
40.1753
37.5697
35.2869
33.3959
31.9494
30.99
30.555
30.6795
31.3984
32.7464
34.7568
37.4598
40.8785
45.0261
49.9009
55.4833
61.7324
68.5847
75.9538
83.7318
91.7934
100
100
91.8225
83.7889
76.0362
68.6887
61.8525
55.6125
50.0302
45.1443
40.9719
37.5113
34.7461
32.6489
31.1852
30.3164
30.0025
30.2029
30.8767
31.9811
33.4691
35.2858
37.3646
39.623
41.961
44.2653
46.4215
48.3381
49.9683
51.3075
52.3788
53.2181
53.8643
54.3533
54.7162
54.978
55.1582
55.2708
55.3248
55.3248
55.2708
55.1582
54.978
54.7162
54.3533
53.8643
53.2181
52.3788
51.3075
49.9683
48.3382
46.4216
44.2654
41.9612
39.6232
37.365
35.2863
33.4697
31.9818
30.8776
30.2039
30.0037
30.3178
31.1867
32.6506
34.7478
37.5131
40.9737
45.1461
50.032
55.6141
61.8539
68.6899
76.0372
83.7895
91.8228
100
100
91.8654
83.8732
76.1591
68.8458
62.0379
55.8184
50.2473
45.3608
41.1737
37.6816
34.8651
32.6929
31.1268
30.1238
29.6396
29.6289
30.0469
30.8472
31.9811
33.3946
35.0263
36.8053
38.6521
40.4819
42.2137
43.7824
45.1488
46.3002
47.2442
48.0005
48.5942
49.051