# vtk DataFile Version 2.0
LBE two cylinders
ASCII
DATASET STRUCTURED_POINTS
DIMENSIONS 76 76 1
ASPECT_RATIO 1 1 1
ORIGIN 0 0 0
POINT_DATA 5776
SCALARS temp double 1
LOOKUP_TABLE default
100
100
100
100
100
100
100
100
100
100
100
100
100
100
100
100
100
100
100
100
100
100
100
100
100
100
-300
-300
-300
-300
-300
-300
-300
-300
-300
-300
-300
-300
-300
-300
100
100
100
100
100
100
100
100
100
100
100
100
100
100
100
100
100
100
100
100
100
100
100
100
100
100
-300
-300
-300
-300
-300
-300
-300
-300
-300
-300
100
99.0836
98.1853
97.3221
96.5098
95.7621
95.0903
94.5033
94.0076
93.6076
93.306
93.1043
93.0033
93.0033
93.1043
93.306
93.6076
94.0076
94.5033
95.0903
95.7621
96.5098
97.3221
98.1853
99.0836
100
-300
-300
-300
-300
-300
-300
-300
-300
-300
-300
-300
-300
-300
-300
100
99.0886
98.195
97.3362
96.5278
95.7833
95.1141
94.5288
94.034
93.6342
93.332
93.1292
93.0266
93.0246
93.1233
93.3226
93.6219
94.0196
94.5131
95.0982
95.7682
96.5143
97.3253
98.1873
99.0846
100
-300
-300
-300
-300
-300
-300
-300
-300
-300
-300
100
98.1839
96.4035
94.6928
93.083
91.6012
90.2699
89.1066
88.1241
87.3313
86.7336
86.3339
86.1338
86.1338
86.3339
86.7336
87.3313
88.1241
89.1066
90.2699
91.6012
93.083
94.6928
96.4035
98.1839
100
-300
-300
-300
-300
-300
-300
-300
-300
-300
-300
-300
-300
-300
-300
100
98.1948
96.4248
94.7237
93.1224
91.6477
90.3218
89.1623
88.182
87.3895
86.7906
86.3885
86.1848
86.1804
86.3756
86.77
87.3625
88.1503
89.128
90.287
91.6144
93.0929
94.6998
96.4079
98.1861
100
-300
-300
-300
-300
-300
-300
-300
-300
-300
-300
100
97.3166
94.6859
92.1583
89.7796
87.5902
85.623
83.9041
82.4525
81.2811
80.3979
79.8073
79.5117
79.5117
79.8073
80.3979
81.2811
82.4525
83.9041
85.623
87.5902
89.7796
92.1583
94.6859
97.3166
100
-300
-300
-300
-300
-300
-300
-300
-300
-300
-300
-300
-300
-300
-300
100
97.3353
94.7226
92.2115
89.8475
87.6703
85.7127
84.0003
82.5523
81.3815
80.4963
79.9015
79.5997
79.5921
79.8792
80.4607
81.3349
82.4975
83.9409
85.6523
87.6128
89.7965
92.1702
94.6935
97.3203
100
-300
-300
-300
-300
-300
-300
-300
-300
-300
-300
100
96.4957
93.0602
89.7593
86.653
83.7937
81.2248
78.9801
77.0844
75.5546
74.4012
73.63
73.2439
73.2439
73.63
74.4012
75.5546
77.0844
78.9801
81.2248
83.7937
86.653
89.7593
93.0602
96.4957
100
-300
-300
-300
-300
-300
-300
-300
-300
-300
-300
-300
-300
-300
-300
100
96.5255
93.1186
89.8441
86.7612
83.9215
81.3677
79.1335
77.2435
75.7148
74.5582
73.7802
73.3842
73.372
73.7445
74.5012
75.6401
77.1559
79.0384
81.2712
83.8296
86.6797
89.7781
93.0721
96.5015
100
-300
-300
-300
-300
-300
-300
-300
-300
-300
-300
100
95.7329
91.5495
87.5299
83.7474
80.2656
77.1375
74.4041
72.0957
70.2329
68.8284
67.8894
67.4192
67.4192
67.8894
68.8284
70.2329
72.0957
74.4041
77.1375
80.2656
83.7474
87.5299
91.5495
95.7329
100
-300
-300
-300
-300
-300
-300
-300
-300
-300
-300
-300
-300
-300
-300
100
95.7785
91.639
87.6601
83.9135
80.4618
77.3569
74.6397
72.3401
70.4789
69.0695
68.1199
67.6345
67.6157
68.0648
68.9817
70.3638
72.205
74.4931
77.2082
80.3202
83.7879
87.5583
91.5674
95.7415
100
-300
-300
-300
-300
-300
-300
-300
-300
-300
-300
100
95.0367
90.1709
85.4956
81.096
77.0463
73.4078
70.2286
67.5437
65.377
63.7434
62.6512
62.1043
62.1043
62.6512
63.7434
65.377
67.5437
70.2286
73.4078
77.0463
81.096
85.4956
90.1709
95.0367
100
-300
-300
-300
-300
-300
-300
-300
-300
-300
-300
-300
-300
-300
-300
100
95.1052
90.3052
85.6909
81.3452
77.3406
73.7371
70.582
67.9103
65.7461
64.1051
62.997
62.4271
62.3988
62.914
63.9727
65.5726
67.7067
70.3612
73.513
77.1272
81.156
85.5376
90.1974
95.0495
100
-300
-300
-300
-300
-300
-300
-300
-300
-300
-300
100
94.413
88.9357
83.6729
78.7205
74.1619
70.0662
66.4875
63.4652
61.0263
59.1874
57.958
57.3424
57.3424
57.958
59.1874
61.0263
63.4652
66.4875
70.0662
74.1619
78.7205
83.6729
88.9357
94.413
100
-300
-300
-300
-300
-300
-300
-300
-300
-300
-300
-300
-300
-300
-300
100
94.5138
89.1335
83.9604
79.0874
74.5953
70.5513
67.0082
64.0053
61.5701
59.7203
58.4672
57.8176
57.7757
58.3443
59.5241
61.3131
63.7038
66.6813
70.2195
74.2795
78.8073
83.7336
88.9739
94.4314
100
-300
-300
-300
-300
-300
-300
-300
-300
-300
-300
100
93.8643
87.849
82.0693
76.6305
71.6242
67.1263
63.1961
59.8771
57.1986
55.1792
53.829
53.153
53.153
53.829
55.1792
57.1986
59.8771
63.1961
67.1263
71.6242
76.6305
82.0693
87.849
93.8643
100
-300
-300
-300
-300
-300
-300
-300
-300
-300
-300
-300
-300
-300
-300
100
94.0102
88.1355
82.4859
77.1621
72.2523
67.8293
63.9509
60.66
57.9869
55.9516
54.5669
53.8412
53.7801
54.3875
55.6654
57.6121
60.2204
63.4743
67.3457
71.792
76.754
82.1553
87.903
93.8903
100
-300
-300
-300
-300
-300
-300
-300
-300
-300
-300
100
93.3902
86.9102
80.684
74.8249
69.4319
64.5865
60.3527
56.7772
53.8919
51.7165
50.262
49.5337
49.5337
50.262
51.7165
53.8919
56.7772
60.3527
64.5865
69.4319
74.8249
80.684
86.9102
93.3902
100
-300
-300
-300
-300
-300
-300
-300
-300
-300
-300
-300
-300
-300
-300
100
93.5983
87.3187
81.2781
75.5834
70.328
65.5897
61.43
57.8949
55.017
52.8187
51.3147
50.5151
50.4272
51.0568
52.4073
54.4783
57.2631
60.7452
64.895
69.667
74.9974
80.8035
86.985
93.4261
100
-300
-300
-300
-300
-300
-300
-300
-300
-300
-300
100
92.9881
86.1137
79.5087
73.2931
67.572
62.4318
57.9404
54.1474
51.0866
48.7788
47.2359
46.4633
46.4633
47.2359
48.7788
51.0866
54.1474
57.9404
62.4318
67.572
73.2931
79.5087
86.1137
92.9881
100
-300
-300
-300
-300
-300
-300
-300
-300
-300
-300
-300
-300
-300
-300
100
93.2802
86.6875
80.3433
74.3588
68.8314
63.8421
59.4552
55.7191
52.6687
50.3284
48.7152
47.8414
47.7168
48.3495
49.745
51.905
54.8237
58.485
62.8582
67.8955
73.5293
79.6716
86.2152
93.0366
100
-300
-300
-300
-300
-300
-300
-300
-300
-300
-300
100
92.653
85.4501
78.5294
72.0169
66.0224
60.6366
55.9306
51.9564
48.7493
46.3314
44.7147
43.9052
43.9052
44.7147
46.3314
48.7493
51.9564
55.9306
60.6366
66.0224
72.0169
78.5294
85.4501
92.653
100
-300
-300
-300
-300
-300
-300
-300
-300
-300
-300
-300
-300
-300
-300
100
93.0572
86.2441
79.6846
73.4923
67.7666
62.5902
58.0294
54.1342
50.9415
48.478
46.7629
45.8117
45.6374
46.2512
47.6619
49.8736
52.8825
56.6735
61.2157
66.4594
72.334
78.7469
85.585
92.7172
100
-300
-300
-300
-300
-300
-300
-300
-300
-300
-300
100
92.3788
84.9072
77.7282
70.9727
64.7544
59.1677
54.2861
50.1637
46.837
44.3288
42.6518
41.8121
41.8121
42.6518
44.3288
46.837
50.1637
54.2861
59.1677
64.7544
70.9727
77.7282
84.9072
92.3788
100
-300
-300
-300
-300
-300
-300
-300
-300
-300
-300
-300
-300
-300
-300
100
92.9299
85.9898
79.3037
72.9856
67.1349
61.8349
57.1522
53.138
49.8309
47.2595
45.4466
44.4111
44.1703
44.7399
46.1327
48.3568
51.4111
55.2823
59.9401
65.3337
71.39
78.0124
85.0821
92.4618
100
-300
-300
-300
-300
-300
-300
-300
-300
-300
-300
100
92.1584
84.4708
77.0843
70.1335
63.7355
57.9873
52.9646
48.723
45.3001
42.7195
40.994
40.1301
40.1301
40.994
42.7195
45.3001
48.723
52.9646
57.9873
63.7355
70.1335
77.0843
84.4708
92.1584
100
-300
-300
-300
-300
-300
-300
-300
-300
-300
-300
-300
-300
-300
-300
100
92.8989
85.9256
79.2021
72.8402
66.9379
61.5768
56.8231
52.728
49.3313
46.6642
44.7531
43.6219
43.2934
43.7891
45.1277
47.3222
50.3757
54.2775
58.9986
64.4881
70.671
77.4469
84.6922
92.2628
100
-300
-300
-300
-300
-300
-300
-300
-300
-300
-300
100
91.9845
84.1264
76.576
69.471
62.9312
57.0555
51.9215
47.5858
44.0871
41.4492
39.6855
38.8024
38.8024
39.6855
41.4492
44.0871
47.5858
51.9215
57.0555
62.9312
69.471
76.576
84.1264
91.9845
100
-300
-300
-300
-300
-300
-300
-300
-300
-300
-300
-300
-300
-300
-300
100
92.9651
86.0533
79.3822
73.0593
67.1787
61.8191
57.0441
52.9042
49.4399
46.6852
44.6708
43.4271
42.9842
43.3714
44.615
46.7346
49.7389
53.6212
58.3547
63.8889
70.1474
77.0269
84.3986
92.1118
100
-300
-300
-300
-300
-300
-300
-300
-300
-300
-300
100
91.8497
83.8593
76.182
68.9574
62.3075
56.333
51.1127
46.7041
43.1466
40.4644
38.671
37.7731
37.7731
38.671
40.4643
43.1466
46.7041
51.1127
56.333
62.3075
68.9574
76.182
83.8593
91.8497
100
-300
-300
-300
-300
-300
-300
-300
-300
-300
-300
-300
-300
-300
-300
100
93.1297
86.3755
79.8479
73.648
67.8636
62.5682
57.8214
53.6716
50.159
47.3203
45.1922
43.8128
43.2221
43.4599
44.5623
46.5577
49.462
53.2736
57.9691
63.4994
69.7872
76.7262
84.1827
91.9991
100
-300
-300
-300
-300
-300
-300
-300
-300
-300
-300
100
91.7469
83.6559
75.8818
68.5663
61.8326
55.7828
50.4967
46.0326
42.4302
39.7142
37.8983
36.9891
36.9891
37.8983
39.7142
42.4302
46.0326
50.4967
55.7828
61.8326
68.5662
75.8818
83.6559
91.7469
100
-300
-300
-300
-300
-300
-300
-300
-300
-300
-300
-300
-300
-300
-300
100
93.3945
86.8955
80.6045
74.6133
69.0015
63.8349
59.1667
55.0411
51.4971
48.574
46.3151
44.7692
43.9894
44.0292
44.9378
46.7546
49.5046
53.1928
57.8003
63.2801
69.5549
76.5159
84.0241
91.914
100
-300
-300
-300
-300
-300
-300
-300
-300
-300
-300
100
91.6701
83.5037
75.6572
68.2735
61.4772
55.3711
50.0358
45.5301
41.8943
39.153
37.3202
36.4025
36.4025
37.3202
39.153
41.8943
45.5301
50.0358
55.3711
61.4772
68.2735
75.6572
83.5037
91.6701
100
-300
-300
-300
-300
-300
-300
-300
-300
-300
-300
-300
-300
-300
-300
100
93.761
87.6169
81.6577
75.964
70.6043
65.6339
61.0973
57.0311
53.4711
50.4582
48.0439
46.2912
45.2709
45.055
45.7093
47.2872
49.8245
53.3344
57.8035
63.188
69.4116
76.3634
83.8991
91.844
100
-300
-300
-300
-300
-300
-300
-300
-300
-300
-300
100
91.6136
83.3918
75.4921
68.0584
61.2159
55.0684
49.6969
45.1608
41.5003
38.7404
36.8952
35.9713
35.9713
36.8952
38.7404
41.5002
45.1608
49.6969
55.0684
61.2159
68.0584
75.4921
83.3918
91.6136
100
-300
-300
-300
-300
-300
-300
-300
-300
-300
-300
-300
-300
-300
-300
100
94.2305
88.5425
83.0128
77.7084
72.6844
67.983
63.6355
59.6673
56.1066
52.9938
50.3898
48.3775
47.0527
46.5119
46.8424
48.1145
50.3764
53.6504
57.9298
63.1754
69.3128
76.2306
83.7794
91.774
100
-300
-300
-300
-300
-300
-300
-300
-300
-300
-300
100
91.5728
83.311
75.3728
67.9029
61.0272
54.8498
49.4522
44.894
41.2157
38.4424
36.5882
35.6598
35.6598
36.5882
38.4424
41.2156
44.894
49.4522
54.8498
61.0272
67.9029
75.3728
83.311
91.5728
100
-300
-300
-300
-300
-300
-300
-300
-300
-300
-300
-300
-300
-300
-300
100
94.8029
89.6728
84.6717
79.852
75.253
70.9005
66.8082
62.9838
59.4404
56.2125
53.3715
51.0293
49.3187
48.3702
48.2977
49.1904
51.1098
54.0878
58.1248
63.1876
69.2063
76.071
83.6292
91.6841
100
-300
-300
-300
-300
-300
-300
-300
-300
-300
-300
100
91.5438
83.2536
75.2882
67.7926
60.8932
54.6946
49.2785
44.7046
41.0137
38.2309
36.3703
35.4387
35.4387
36.3703
38.2309
41.0136
44.7046
49.2785
54.6946
60.8932
67.7926
75.2882
83.2536
91.5438
100
-300
-300
-300
-300
-300
-300
-300
-300
-300
-300
-300
-300
-300
-300
100
95.4759
91.0041
86.6312
82.3943
78.3159
74.4026
70.6452
67.0245
63.5253
60.1627
57.0163
54.2473
52.0463
50.591
50.0263
50.4606
51.9674
54.587
58.327
63.1616
69.0288
75.8255
83.4003
91.5467
100
-300
-300
-300
-300
-300
-300
-300
-300
-300
-300
100
91.5236
83.2136
75.2291
67.7157
60.7998
54.5864
49.1573
44.5725
40.8728
38.0833
36.2183
35.2845
35.2845
36.2183
38.0833
40.8727
44.5725
49.1573
54.5864
60.7998
67.7156
75.2291
83.2136
91.5236
100
-300
-300
-300
-300
-300
-300
-300
-300
-300
-300
-300
-300
-300
-300
100
96.2442
92.5263
88.8789
85.324
81.868
78.4975
75.176
71.8456
68.4396
64.9216
61.3639
58.0261
55.1976
53.1182
51.9646
51.8597
52.8837
55.0817
58.4675
63.0244
68.7031
75.4158
83.024
91.319
100
-300
-300
-300
-300
-300
-300
-300
-300
-300
-300
100
91.5098
83.1862
75.1887
67.6629
60.7358
54.5122
49.0743
44.482
40.7762
37.9822
36.1141
35.1788
35.1788
36.1141
37.9822
40.7761
44.4819
49.0742
54.5121
60.7357
67.6628
75.1886
83.1861
91.5097
100
-300
-300
-300
-300
-300
-300
-300
-300
-300
-300
-300
-300
-300
-300
100
97.0979
94.221
91.3897
88.6135
85.8861
83.1769
80.4228
77.5171
74.307
70.6287
66.4699
62.3406
58.7031
55.8674
54.0285
53.3089
53.785
55.5005
58.4724
62.694
68.1347
74.7357
82.3946
90.9276
100
-300
-300
-300
-300
-300
-300
-300
-300
-300
-300
100
91.5004
83.1677
75.1614
67.6274
60.6926
54.4622
49.0183
44.421
40.7111
37.914
36.0439
35.1076
35.1075
36.0439
37.914
40.711
44.4208
49.0181
54.4621
60.6925
67.6272
75.1613
83.1676
91.5004
100
-300
-300
-300
-300
-300
-300
-300
-300
-300
-300
-300
-300
-300
-300
100
98.0224
96.0596
94.1224
92.2127
90.3176
88.3997
86.3814
84.1148
81.3304
77.5811
72.4005
67.1083
62.4332
58.7114
56.1083
54.7168
54.5935
55.772
58.2682
62.0843
67.2131
73.6406
81.3405
90.2289
100
-300
-300
-300
-300
-300
-300
-300
-300
-300
-300
100
91.4942
83.1554
75.1433
67.6038
60.664
54.4291
48.9812
44.3805
40.668
37.8689
35.9974
35.0603
35.0603
35.9973
37.8687
40.6678
44.3803
48.9809
54.4288
60.6638
67.6036
75.1431
83.1553
91.4942
100
-300
-300
-300
-300
-300
-300
-300
-300
-300
-300
-300
-300
-300
-300
100
98.9978
98.0023
97.0179
96.0436
95.0693
94.0679
92.9795
91.6707
89.8194
86.5496
79.1484
72.0894
66.1513
61.4666
58.0697
55.9848
55.2338
55.8331
57.7927
61.1186
65.8229
71.9426
79.5731
88.8966
100
-300
-300
-300
-300
-300
-300
-300
-300
-300
-300
100
91.4902
83.1475
75.1316
67.5885
60.6454
54.4075
48.957
44.3542
40.6398
37.8394
35.967
35.0295
35.0294
35.9668
37.8391
40.6395
44.3538
48.9566
54.407
60.6449
67.5881
75.1312
83.1472
91.4901
100
-300
-300
-300
-300
-300
-300
-300
-300
-300
-300
-300
-300
-300
-300
100
100
100
100
100
100
100
100
100
100
100
86.0874
76.6567
69.4687
63.9014
59.7697
57.0212
55.6453
55.6419
57.0112
59.7534
63.8796
69.443
76.6299
86.0659
100
100
100
100
100
100
100
100
100
100
100
100
91.4876
83.1424
75.124
67.5786
60.6335
54.3937
48.9415
44.3373
40.6218
37.8205
35.9475
35.0096
35.0095
35.9472
37.82
40.6212
44.3365
48.9407
54.3928
60.6326
67.5779
75.1234
83.1419
91.4874
100
-300
-300
-300
-300
-300
-300
-300
-300
-300
-300
-300
-300
-300
-300
-300
-300
-300
-300
-300
-300
-300
-300
-300
-300
100
88.8993
79.5733
71.937
65.8097
61.097
57.7626
55.7949
55.188
55.9323
58.0114
61.404
66.0862
72.0245
79.0877
86.4976
89.7719
91.6269
92.9396
94.0324
95.0387
96.0184
96.9986
97.9892
98.9912
100
100
91.486
83.1391
75.1193
67.5724
60.6259
54.3849
48.9317
44.3265
40.6103
37.8084
35.935
34.9969
34.9967
35.9345
37.8076
40.6092
44.3253
48.9303
54.3835
60.6245
67.5712
75.1182
83.1384
91.4856
100
-300
-300
-300
-300
-300
-300
-300
-300
-300
-300
-300
-300
-300
-300
-300
-300
-300
-300
-300
-300
-300
-300
-300
-300
100
90.2185
81.3182
73.6051
67.164
62.0218
58.193
55.6853
54.4968
54.6116
55.9965
58.595
62.3146
66.9901
72.2857
77.4724
81.2281
84.0197
86.2945
88.3222
90.2508
92.1577
94.0802
96.031
98.008
100
100
91.485
83.1371
75.1163
67.5686
60.6212
54.3794
48.9255
44.3198
40.603
37.8007
35.927
34.9887
34.9884
35.9261
37.7994
40.6012
44.3176
48.9232
54.377
60.6189
67.5665
75.1146
83.1359
91.4844
100
-300
-300
-300
-300
-300
-300
-300
-300
-300
-300
-300
-300
-300
-300
-300
-300
-300
-300
-300
-300
-300
-300
-300
-300
100
90.9043
82.3479
74.6657
68.0421
62.5801
58.3392
55.3502
53.6201
53.132
53.8426
55.6755
58.5083
62.1463
66.2794
70.4452
74.1327
77.3543
80.2737
83.0439
85.7714
88.5191
91.3173
94.172
97.0731
100
100
91.4844
83.1359
75.1144
67.5661
60.6182
54.376
48.9216
44.3154
40.5983
37.7957
35.9216
34.9831
34.9826
35.9203
37.7934
40.5954
44.3119
48.9178
54.372
60.6144
67.5627
75.1116
83.1339
91.4833
100
-300
-300
-300
-300
-300
-300
-300
-300
-300
-300
-300
-300
-300
-300
-300
-300
-300
-300
-300
-300
-300
-300
-300
-300
100
91.2797
82.9461
75.3003
68.5521
62.8406
58.2542
54.8425
52.6227
51.5812
51.673
52.818
54.8934
57.7224
61.0654
64.6326
68.1643
71.588
74.94
78.2869
81.6864
85.1744
88.7642
92.4486
96.2049
100
100
91.484
83.1351
75.1133
67.5646
60.6163
54.3737
48.919
44.3125
40.595
37.7921
35.9177
34.9789
34.9781
35.9155
37.7885
40.5903
44.3068
48.9128
54.3673
60.6101
67.559
75.1087
83.1318
91.4823
100
-300
-300
-300
-300
-300
-300
-300
-300
-300
-300
-300
-300
-300
-300
-300
-300
-300
-300
-300
-300
-300
-300
-300
-300
100
91.4857
83.2795
75.647
68.7963
62.8793
58.0002
54.2215
51.5694
50.0366
49.5829
50.135
51.5845
53.7862
56.5627
59.7231
63.1061
66.632
70.2855
74.0815
78.0389
82.1662
86.4563
90.8855
95.4161
100
100
91.4837
83.1346
75.1125
67.5636
60.615
54.3721
48.9171
44.3102
40.5924
37.7891
35.9143
34.975
34.9738
35.9107
37.7833
40.5848
44.3011
48.9071
54.3617
60.605
67.5545
75.1051
83.1293
91.481
100
-300
-300
-300
-300
-300
-300
-300
-300
-300
-300
-300
-300
-300
-300
-300
-300
-300
-300
-300
-300
-300
-300
-300
-300
100
91.5926
83.4479
75.8038
68.8584
62.7658
57.6371
53.5428
50.5169
48.5592
47.6381
47.6921
48.632
50.3439
52.697
55.5587
58.8169
62.3998
66.273
70.4228
74.8408
79.5126
84.4114
89.4964
94.7138
100
100
91.4835
83.1342
75.1119
67.5628
60.614
54.3708
48.9154
44.3082
40.5899
37.786
35.9106
34.9706
34.9687
35.9049
37.7769
40.5778
44.2937
48.8995
54.3543
60.598
67.5484
75.1001
83.1258
91.4792
100
-300
-300
-300
-300
-300
-300
-300
-300
-300
-300
-300
-300
-300
-300
-300
-300
-300
-300
-300
-300
-300
-300
-300
-300
100
91.6397
83.5136
75.8389
68.8031
62.5577
57.2158
52.853
49.5093
47.1918
45.8786
45.5213
46.0498
47.3766
49.405
52.0391
55.1961
58.8146
62.8539
67.2853
72.0824
77.2128
82.6326
88.285
94.1004
100
100
91.4834
83.1339
75.1114
67.562
60.613
54.3694
48.9137
44.3059
40.5869
37.7823
35.906
34.965
34.962
35.8971
37.768
40.568
44.2832
48.8887
54.3436
60.5879
67.5394
75.0928
83.1206
91.4765
100
-300
-300
-300
-300
-300
-300
-300
-300
-300
-300
-300
-300
-300
-300
-300
-300
-300
-300
-300
-300
-300
-300
-300
-300
100
91.6505
83.5162
75.7992
68.6776
62.2988
56.776
52.1873
48.5776
45.9608
44.3241
43.6318
43.8303
44.8536
46.6296
49.0874
52.1637
55.8068
59.9751
64.6322
69.74
75.2525
81.1119
87.2471
93.5743
100
100
91.4832
83.1336
75.1109
67.5612
60.6118
54.3678
48.9114
44.3029
40.583
37.7773
35.8997
34.9572
34.9526
35.886
37.7553
40.5538
44.268
48.8728
54.3277
60.5729
67.526
75.0819
83.1129
91.4725
100
-300
-300
-300
-300
-300
-300
-300
-300
-300
-300
-300
-300
-300
-300
-300
-300
-300
-300
-300
-300
-300
-300
-300
-300
100
91.6396
83.4812
75.7161
68.5147
62.0204
56.3452
51.5689
47.74
44.8782
42.9787
42.0169
41.9528
42.7372
44.3164
46.637
49.6499
53.3114
57.5815
62.4198
67.7807
73.6083
79.8335
86.3731
93.1307
100
100
91.483
83.1331
75.1102
67.5602
60.6103
54.3657
48.9085
44.2989
40.5777
37.7703
35.8908
34.9462
34.9392
35.8701
37.7369
40.5332
44.2457
48.8495
54.3044
60.5507
67.5062
75.0657
83.1014
91.4665
100
-300
-300
-300
-300
-300
-300
-300
-300
-300
-300
-300
-300
-300
-300
-300
-300
-300
-300
-300
-300
-300
-300
-300
-300
100
91.616
83.4249
75.61
68.336
61.7425
55.9405
51.0104
47.0036
43.9444
41.8348
40.6589
40.3881
40.9858
42.412
44.6263
47.5901
51.2663
55.6172
60.6008
66.1663
72.2507
78.7761
85.6493
92.7631
100
100
91.4828
83.1326
75.1093
67.5588
60.6082
54.3627
48.9044
44.2933
40.5703
37.7606
35.8783
34.9305
34.92
35.8473
37.7105
40.5035
44.2133
48.8155
54.2703
60.518
67.477
75.0417
83.0844
91.4577
100
-300
-300
-300
-300
-300
-300
-300
-300
-300
-300
-300
-300
-300
-300
-300
-300
-300
-300
-300
-300
-300
-300
-300
-300
100
91.5849
83.3566
75.4926
68.1534
61.4758
55.5694
50.5153
46.3664
43.151
40.8762
39.5332
39.1017
39.5552
40.8636
42.9965
45.9231
49.6118
54.0271
59.1264
64.8558
71.1471
77.9154
85.0595
92.4634
100
100
91.4824
83.1319
75.1081
67.5569
60.6055
54.3588
48.8989
44.2857
40.56
37.7471
35.8609
34.9086
34.8931
35.8151
37.6729
40.461
44.1668
48.7665
54.2208
60.4706
67.4343
75.0066
83.0594
91.4446
100
-300
-300
-300
-300
-300
-300
-300
-300
-300
-300
-300
-300
-300
-300
-300
-300
-300
-300
-300
-300
-300
-300
-300
-300
100
91.549
83.2808
75.3692
67.9718
61.2232
55.2321
50.0794
45.8195
42.4831
40.0812
38.6101
38.0564
38.4004
39.62
41.6918
44.5912
48.2908
52.7574
57.9484
63.8079
70.2637
77.2259
84.5867
92.2229
100
100
91.482
83.1309
75.1065
67.5544
60.6018
54.3535
48.8914
44.2754
40.5461
37.7286
35.837
34.8784
34.8558
35.7701
37.6203
40.4012
44.101
48.6968
54.15
60.4022
67.3725
74.9557
83.023
91.4256
100
-300
-300
-300
-300
-300
-300
-300
-300
-300
-300
-300
-300
-300
-300
-300
-300
-300
-300
-300
-300
-300
-300
-300
-300
100
91.5087
83.1979
75.2398
67.7899
60.9815
54.9223
49.693
45.3485
41.921
39.4242
37.8582
37.214
37.4774
38.6319
40.6594
43.54
47.2498
51.7575
57.0207
62.9823
69.5674
76.682
84.2135
92.0332
100
100
91.4814
83.1297
75.1044
67.5512
60.5969
54.3465
48.8814
44.2616
40.5274
37.7037
35.8047
34.8373
34.8048
35.7084
37.5476
40.3181
44.0091
48.5987
54.0497
60.305
67.2842
74.8823
82.9704
91.3982
100
-300
-300
-300
-300
-300
-300
-300
-300
-300
-300
-300
-300
-300
-300
-300
-300
-300
-300
-300
-300
-300
-300
-300
-300
100
91.4624
83.1052
75.0998
67.6013
60.7421
54.6288
49.3416
44.9352
41.4423
38.8781
37.245
36.537
36.7439
37.853
39.8504
42.7196
46.4394
50.9802
56.3001
62.3412
69.0266
76.2596
83.9237
91.8857
100
100
91.4807
83.1281
75.1017
67.547
60.5906
54.3373
48.8684
44.2435
40.5027
37.6708
35.7617
34.7824
34.7363
35.625
37.4488
40.2043
43.8823
48.4625
53.9095
60.168
67.1588
74.7777
82.895
91.3586
100
-300
-300
-300
-300
-300
-300
-300
-300
-300
-300
-300
-300
-300
-300
-300
-300
-300
-300
-300
-300
-300
-300
-300
-300
100
91.4072
82.9965
74.9406
67.395
60.4915
54.336
49.0071
44.5586
41.0228
38.415
36.7387
35.9899
36.1606
37.2412
39.2205
42.0849
45.8152
50.3833
55.7477
61.8502
68.6127
75.9363
83.7019
91.7729
100
100
91.4798
83.1261
75.0982
67.5416
60.5826
54.3256
48.8517
44.2202
40.4708
37.6281
35.7056
34.7103
34.6458
35.5142
37.3164
40.0508
43.7098
48.2757
53.7156
59.9768
66.9825
74.6295
82.7875
91.302
100
-300
-300
-300
-300
-300
-300
-300
-300
-300
-300
-300
-300
-300
-300
-300
-300
-300
-300
-300
-300
-300
-300
-300
-300
100
91.3379
82.8623
74.749
67.155
60.212
54.0242
48.6683
44.1958
40.6373
38.0073
36.3091
35.5394
35.6918
36.7585
38.7305
41.5961
45.338
49.9292
55.329
61.4789
68.3001
75.6924
83.5346
91.6878
100
100
91.4786
83.1236
75.094
67.535
60.5726
54.3109
48.8308
44.1908
40.4303
37.5735
35.6336
34.6173
34.5283
35.3692
37.1421
39.847
43.4787
48.0229
53.4504
59.7126
66.7363
74.4204
82.6347
91.2212
100
-300
-300
-300
-300
-300
-300
-300
-300
-300
-300
-300
-300
-300
-300
-300
-300
-300
-300
-300
-300
-300
-300
-300
-300
100
91.2471
82.6887
74.5064
66.8599
59.8805
53.6699
48.3011
43.8222
40.2606
37.6285
35.928
35.1557
35.3058
36.3718
38.3462
41.2189
44.9741
49.5858
55.0142
61.2009
68.0668
75.5107
83.4102
91.6246
100
100
91.4772
83.1206
75.0889
67.5269
60.5604
54.293
48.8049
44.1543
40.38
37.5053
35.543
34.4996
34.3785
35.1831
36.9164
39.5805
43.1734
47.6851
53.0917
59.3506
66.3945
74.1266
82.4176
91.1055
100
-300
-300
-300
-300
-300
-300
-300
-300
-300
-300
-300
-300
-300
-300
-300
-300
-300
-300
-300
-300
-300
-300
-300
-300
100
91.1239
82.4559
74.1874
66.4815
59.4684
53.2451
47.8791
43.4124
39.8676
37.2534
35.5698
34.8124
34.9753
36.0529
38.0388
40.9244
44.6951
49.3262
54.7786
60.9943
67.8943
75.3768
83.3186
91.5781
100
100
91.4756
83.1171
75.0829
67.5173
60.5459
54.2715
48.7738
44.1102
40.3186
37.4217
35.4314
34.3535
34.1913
34.9484
36.6291
39.2378
42.7764
47.2399
52.6121
58.859
65.9225
73.7142
82.1085
90.9389
100
-300
-300
-300
-300
-300
-300
-300
-300
-300
-300
-300
-300
-300
-300
-300
-300
-300
-300
-300
-300
-300
-300
-300
-300
100
90.9517
82.1351
73.7564
65.9827
58.9402
52.7176
47.373
42.9399
39.434
36.8591
35.212
34.4867
34.6772
35.7782
37.7845
40.6888
44.4779
49.1283
54.6017
60.841
67.7673
75.2787
83.2518
91.5443
100
100
91.4738
83.1131
75.076
67.5063
60.529
54.2463
48.7372
44.0579
40.2455
37.3215
35.2966
34.1758
33.9619
34.6583
36.2705
38.8053
42.2685
46.662
51.9788
58.1971
65.2736
73.1346
81.6649
90.6959
100
-300
-300
-300
-300
-300
-300
-300
-300
-300
-300
-300
-300
-300
-300
-300
-300
-300
-300
-300
-300
-300
-300
-300
-300
100
90.7047
81.683
73.1633
65.3145
58.2521
52.0501
46.7518
42.3786
38.9372
36.425
34.8352
34.16
34.3928
35.529
37.5645
40.4935
44.3042
48.9746
54.4676
60.7267
67.6738
75.2072
83.2034
91.5198
100
100
91.4719
83.1088
75.0684
67.4941
60.51
54.2177
48.6952
43.9975
40.1605
37.204
35.1375
33.9645
33.6867
34.3073
35.832
38.2697
41.6307
45.924
51.1538
57.3146
64.3849
72.3169
81.0197
90.3333
100
-300
-300
-300
-300
-300
-300
-300
-300
-300
-300
-300
-300
-300
-300
-300
-300
-300
-300
-300
-300
-300
-300
-300
-300
100
90.3392
81.0319
72.3361
64.4122
57.3513
51.2012
45.9836
41.7037
38.357
35.9341
34.4241
33.8175
34.1077
35.2908
37.3643
40.324
44.16
48.8518
54.3637
60.6405
67.6046
75.155
83.1684
91.5022
100
100
91.4698
83.1043
75.0603
67.4809
60.4894
54.1863
48.6484
43.9296
40.064
37.0697
34.9542
33.7191
33.3644
33.892
35.3075
37.621
40.8464
44.9995
50.0968
56.1522
63.1741
71.157
80.0623
89.7714
100
-300
-300
-300
-300
-300
-300
-300
-300
-300
-300
-300
-300
-300
-300
-300
-300
-300
-300
-300
-300
-300
-300
-300
-300
100
89.7752
80.0703
71.1697
63.192
56.1763
50.1278
45.0385
40.894
37.6779
35.374
33.968
33.4494
33.8121
35.0538
37.1738
40.1702
44.0351
48.7501
54.2811
60.5741
67.5527
75.1166
83.143
91.4896
100
100
91.4679
83.0999
75.0524
67.4676
60.4679
54.1529
48.5981
43.8556
39.9577
36.9202
34.7484
33.4411
32.9959
33.4127
34.6955
36.8542
39.9045
43.8676
48.7703
54.6463
61.539
69.5041
78.6024
88.8456
100
-300
-300
-300
-300
-300
-300
-300
-300
-300
-300
-300
-300
-300
-300
-300
-300
-300
-300
-300
-300
-300
-300
-300
-300
100
88.8482
78.6076
69.5123
61.5506
54.6618
48.7903
43.8926
39.9351
36.8907
34.7381
33.4613
33.0503
33.5006
34.8121
36.9868
40.0256
43.9231
48.6632
54.2136
60.5221
67.5135
75.0885
83.1247
91.4806
100
100
91.4664
83.0963
75.0454
67.4552
60.4471
54.1194
48.5462
43.7779
39.8443
36.7589
34.5239
33.1349
32.5863
32.8744
34.0006
35.9724
38.8046
42.5198
47.1501
52.7423
59.3693
67.1532
76.3071
87.1715
100
-300
-300
-300
-300
-300
-300
-300
-300
-300
-300
-300
-300
-300
-300
-300
-300
-300
-300
-300
-300
-300
-300
-300
-300
100
87.1731
76.3104
67.1584
59.3766
52.7522
47.1628
42.5356
38.8239
35.9954
34.0275
32.9051
32.6205
33.1724
34.564
36.8009
39.8871
43.8204
48.5872
54.1577
60.4812
67.4841
75.0681
83.1119
91.4744
100
100
91.4657
83.0942
75.0405
67.4452
60.4288
54.0883
48.4959
43.7002
39.7284
36.5911
34.287
32.808
32.1443
32.2877
33.235
34.9892
37.5608
40.9682
45.2401
50.4213
56.5867
63.8808
72.6294
83.712
100
100
100
100
100
100
100
100
100
100
100
100
100
100
100
100
100
100
100
100
100
100
100
100
100
100
83.713
72.6315
63.8841
56.5913
50.4274
45.248
40.978
37.5728
35.0035
33.2517
32.3068
32.1656
32.8313
34.3119
36.6171
39.7549
43.7265
48.5214
54.112
60.45
67.4632
75.0546
83.1038
91.4706
100
100
91.4663
83.0946
75.0393
67.44
60.416
54.063
48.4514
43.6275
39.6159
36.424
34.0466
32.4714
31.6835
31.6692
32.4193
33.9302
36.2046
39.2518
43.0876
47.7359
53.232
59.6272
66.9818
75.2658
83.7119
87.1712
88.8453
89.7707
90.3323
90.6941
90.936
91.1009
91.214
91.2909
91.3416
91.3723
91.3867
91.3867
91.3723
91.3416
91.2909
91.214
91.1009
90.936
90.6942
90.3323
89.7707
88.8453
87.1713
83.7121
75.2665
66.9831
59.6292
53.2348
47.7397
43.0924
39.2578
36.212
33.939
32.4295
31.6809
31.6965
32.4856
34.0618
36.4399
39.6321
43.6436
48.4669
54.0775
60.429
67.451
75.0479
83.1005
91.4693
100
100
91.469
83.0993
75.0443
67.4427
60.4127
54.0484
48.4184
43.5667
39.5151
36.2675
33.8147
32.1395
31.2216
31.0412
31.5819
32.8319
34.7843
37.4359
40.7851
44.8283
49.5533
54.9226
60.8297
66.9817
72.6292
76.3067
78.6017
80.0611
81.0176
81.6614
82.103
82.4089
82.6209
82.766
82.8621
82.9205
82.9481
82.9481
82.9205
82.8621
82.766
82.6209
82.4089
82.103
81.6615
81.0176
80.0611
78.6017
76.3068
72.6294
66.9822
60.8306
54.9238
49.555
44.8306
40.788
37.4395
34.7887
32.8372
31.588
31.0482
31.2294
32.1481
33.8238
36.2771
39.5249
43.5764
48.4278
54.0571
60.4205
67.4493
75.0495
83.1028
91.4708
100
100
91.4749
83.1102
75.0586
67.4576
60.4242
54.051
48.4047
43.5269
39.4366
36.134
33.6059
31.8301
30.7805
30.4309
30.7572
31.739
33.3591
35.6016
38.4479
41.8713
45.8259
50.2281
54.9225
59.627
63.8805
67.1525
69.5031
71.1552
72.3139
73.1298
73.7064
74.1142
74.4009
74.5992
74.7313
74.812
74.8502
74.8502
74.812
74.7313
74.5992
74.4009
74.1142
73.7064
73.1298
72.3139
71.1553
69.5031
67.1526
63.8807
59.6273
54.923
50.2288
45.8269
41.8727
38.4497
35.6037
33.3618
31.7421
30.7608
30.435
30.7852
31.8352
33.6113
36.1397
39.4423
43.5327
48.4103
54.0562
60.4289
67.4615
75.0617
83.1123
91.4759
100
100
91.4854
83.1304
75.0866
67.4904
60.4577
54.0793
48.4202
43.5196
39.3936
36.039
33.4383
31.5644
30.3857
29.8693
29.9839
30.7006
31.9927
33.8331
36.1903
39.0221
42.2661
45.8258
49.5532
53.2318
56.5862
59.3685
61.5377
63.1719
64.3812
65.2676
65.9129
66.3792
66.7122
66.9453
67.1019
67.198
67.2437
67.2437
67.198
67.1019
66.9453
66.7122
66.3792
65.9129
65.2676
64.3813
63.1719
61.5377
59.3686
56.5863
53.232
49.5535
45.8263
42.2667
39.0229
36.1913
33.8344
31.9942
30.7024
29.986
29.8717
30.3884
31.5674
33.4414
36.0423
39.3969
43.5229
48.4234
54.0823
60.4604
67.4927
75.0883
83.1316
91.486
100
100
91.5025
83.1636
75.1338
67.5486
60.5222
54.1443
48.4776
43.5593
39.4026
36.001
33.333
31.367
30.0658
29.3905
29.3029
29.7669
30.7475
32.2091
34.1116
36.4049
39.0221
41.8712
44.8282
47.7356
50.4207
52.7415
54.6448
56.1497
57.3104
58.1903
58.848
59.3333
59.6855
59.9349
60.1039
60.2084
60.2582
60.2582
60.2084
60.1039
59.9349
59.6855
59.3333
58.8481
58.1903
57.3105
56.1497
54.6448
52.7415
50.4208
47.7357
44.8283
41.8715
39.0224
36.4053
34.1122
32.2099
30.7484
29.768
29.3041
29.3918
30.0673
31.3687
33.3348
36.0029
39.4045
43.5612
48.4795
54.146
60.5238
67.5499
75.1348
83.1643
91.5028
100
100
91.5286
83.2147
75.2077
67.6417
60.6298
54.2599
48.593
43.6641
39.4838
36.0425
33.3152
31.2658
29.8523
29.0305
28.7563
28.9872
29.6819
30.7988
32.2929
34.1116
36.1903
38.4478
40.7849
43.0873
45.2396
47.1492
48.7687
50.0941
51.1494
51.9715
52.6005
53.0733
53.4216
53.6713
53.842
53.9481
53.9989
53.9989
53.9481
53.842
53.6713
53.4216
53.0733
52.6005
51.9715
51.1494
50.0941
48.7687
47.1492
45.2396
43.0874
40.785
38.448
36.1905
34.1118
32.2932
30.7992
29.6824
28.9878
28.757
29.0313
29.8532
31.2667
33.3162
36.0436
39.4849
43.6652
48.5941
54.2609
60.6307
67.6425
75.2083
83.2151
91.5288
100
100
91.5669
83.29
75.3175
67.7821
60.7953
54.4436
48.7864
43.8563
39.6618
36.1905
33.414
31.2927
29.7804
28.8281
28.3868
28.4092
28.8492
29.6615
30.7988
32.2091
33.833
35.6015
37.4357
39.2515
40.9676
42.5188
43.866
44.9968
45.9195
46.6547
47.2282
47.6665
47.9939
48.2311
48.3947
48.497
48.5462
48.5462