# vtk DataFile Version 2.0
LBE two cylinders
ASCII
DATASET STRUCTURED_POINTS
DIMENSIONS 76 76 1
ASPECT_RATIO 1 1 1
ORIGIN 0 0 0
POINT_DATA 5776
SCALARS temp double 1
LOOKUP_TABLE default
100
100
100
100
100
100
100
100
100
100
100
100
100
100
100
100
100
100
100
100
100
100
100
100
100
100
-300
-300
-300
-300
-300
-300
-300
-300
-300
-300
-300
-300
-300
-300
100
100
100
100
100
100
100
100
100
100
100
100
100
100
100
100
100
100
100
100
100
100
100
100
100
100
-300
-300
-300
-300
-300
-300
-300
-300
-300
-300
100
99.0624
98.1435
97.2611
96.4314
95.6685
94.984
94.3866
93.8827
93.4767
93.1709
92.9666
92.8644
92.8644
92.9666
93.1709
93.4767
93.8827
94.3866
94.984
95.6685
96.4314
97.2611
98.1435
99.0624
100
-300
-300
-300
-300
-300
-300
-300
-300
-300
-300
-300
-300
-300
-300
100
99.0669
98.1523
97.2739
96.4478
95.6878
95.0055
94.4097
93.9067
93.5008
93.1944
92.9891
92.8853
92.8835
92.9836
93.1858
93.4894
93.8933
94.3952
94.9908
95.6738
96.4354
97.2639
98.1453
99.0633
100
-300
-300
-300
-300
-300
-300
-300
-300
-300
-300
100
98.1422
96.3215
94.5731
92.9291
91.4175
90.0611
88.8774
87.8791
87.0746
86.4686
86.0639
85.8613
85.8613
86.0639
86.4686
87.0746
87.8791
88.8774
90.0611
91.4175
92.9291
94.5731
96.3215
98.1422
100
-300
-300
-300
-300
-300
-300
-300
-300
-300
-300
-300
-300
-300
-300
100
98.1521
96.3409
94.6013
92.9651
91.4599
90.1085
88.9282
87.9317
87.1274
86.5204
86.1132
85.9073
85.9033
86.1013
86.5013
87.1024
87.9024
88.8964
90.0761
91.4291
92.9378
94.5791
96.3253
98.1441
100
-300
-300
-300
-300
-300
-300
-300
-300
-300
-300
100
97.2559
94.5665
91.984
89.5557
87.323
85.3194
83.571
82.0965
80.9081
80.0131
79.4152
79.116
79.116
79.4152
80.0131
80.9081
82.0965
83.571
85.3194
87.323
89.5557
91.984
94.5665
97.2559
100
-300
-300
-300
-300
-300
-300
-300
-300
-300
-300
-300
-300
-300
-300
100
97.2731
94.6002
92.0329
89.6181
87.3965
85.4016
83.6592
82.1878
80.9998
80.1029
79.5009
79.1959
79.1888
79.4801
80.0697
80.9563
82.1367
83.6038
85.3454
87.343
89.5706
91.9944
94.5731
97.2591
100
-300
-300
-300
-300
-300
-300
-300
-300
-300
-300
100
96.4181
92.9075
89.5364
86.3668
83.4523
80.837
78.5548
76.63
75.0788
73.9105
73.1301
72.7396
72.7396
73.1301
73.9105
75.0788
76.63
78.5548
80.837
83.4523
86.3668
89.5364
92.9075
96.4181
100
-300
-300
-300
-300
-300
-300
-300
-300
-300
-300
-300
-300
-300
-300
100
96.4456
92.9616
89.6149
86.4668
83.5704
80.9689
78.6962
76.7766
75.2261
74.0547
73.2676
72.8678
72.8564
73.2342
74.0012
75.1561
76.6944
78.6071
80.8784
83.4842
86.3904
89.553
92.918
96.4231
100
-300
-300
-300
-300
-300
-300
-300
-300
-300
-300
100
95.6407
91.3683
87.2656
83.4081
79.8611
76.6782
73.9008
71.5584
69.6705
68.2487
67.2989
66.8236
66.8236
67.2989
68.2487
69.6705
71.5584
73.9008
76.6782
79.8611
83.4081
87.2656
91.3683
95.6407
100
-300
-300
-300
-300
-300
-300
-300
-300
-300
-300
-300
-300
-300
-300
100
95.6833
91.4518
87.387
83.5628
80.0437
76.8823
74.1196
71.785
69.8983
68.4716
67.5116
67.0218
67.0041
67.4596
68.3886
69.7896
71.6574
73.9812
76.7419
79.91
83.4442
87.2909
91.3842
95.6484
100
-300
-300
-300
-300
-300
-300
-300
-300
-300
-300
100
94.9329
89.9667
85.1978
80.7139
76.591
72.8913
69.6628
66.9401
64.7457
63.093
61.989
61.4366
61.4366
61.989
63.093
64.7457
66.9401
69.6628
72.8913
76.591
80.7139
85.1978
89.9667
94.9329
100
-300
-300
-300
-300
-300
-300
-300
-300
-300
-300
-300
-300
-300
-300
100
94.9972
90.0928
85.3811
80.9476
76.8668
73.1996
69.9935
67.2826
65.09
63.4299
62.3104
61.736
61.7091
62.2315
63.304
64.925
67.089
69.7835
72.9866
76.664
80.7677
85.2353
89.9903
94.9443
100
-300
-300
-300
-300
-300
-300
-300
-300
-300
-300
100
94.3002
88.714
83.3496
78.3059
73.6682
69.5066
65.8751
62.8124
60.3441
58.4851
57.2433
56.6219
56.6219
57.2433
58.4851
60.3441
62.8124
65.8751
69.5066
73.6682
78.3059
83.3496
88.714
94.3002
100
-300
-300
-300
-300
-300
-300
-300
-300
-300
-300
-300
-300
-300
-300
100
94.3955
88.901
83.6214
78.6525
74.0773
69.9641
66.3657
63.3206
60.855
58.9849
57.72
57.0658
57.0257
57.6023
58.7971
60.609
63.032
66.0527
69.6465
73.7751
78.3845
83.4042
88.7482
94.3167
100
-300
-300
-300
-300
-300
-300
-300
-300
-300
-300
100
93.7452
87.615
81.7283
76.1934
71.1042
66.5374
62.5523
59.1915
56.4828
54.4428
53.0801
52.3982
52.3982
53.0801
54.4428
56.4828
59.1915
62.5523
66.5374
71.1042
76.1934
81.7283
87.615
93.7452
100
-300
-300
-300
-300
-300
-300
-300
-300
-300
-300
-300
-300
-300
-300
100
93.8841
87.8876
82.1247
76.6991
71.7011
67.2049
63.2682
59.9332
57.2284
55.1722
53.7757
53.0456
52.9867
53.6028
54.8965
56.8673
59.5096
62.809
66.739
71.2577
76.3059
81.8062
87.6637
93.7686
100
-300
-300
-300
-300
-300
-300
-300
-300
-300
-300
100
93.2673
86.6686
80.3322
74.3744
68.8963
63.9806
59.6911
56.0735
53.1579
50.9621
49.4953
48.7612
48.7612
49.4953
50.9621
53.1579
56.0735
59.6911
63.9806
68.8963
74.3744
80.3322
86.6686
93.2673
100
-300
-300
-300
-300
-300
-300
-300
-300
-300
-300
-300
-300
-300
-300
100
93.4666
87.06
80.9011
75.1004
69.7535
64.9394
60.7196
57.1392
54.2292
52.0099
50.4941
49.6904
49.6052
50.2441
51.611
53.7069
56.5267
60.0557
64.266
69.1128
74.5323
80.4411
86.7365
93.2998
100
-300
-300
-300
-300
-300
-300
-300
-300
-300
-300
100
92.8633
85.8687
79.1521
72.8369
67.0301
61.8195
57.2726
53.438
50.3475
48.02
46.4652
45.6871
45.6871
46.4652
48.02
50.3475
53.438
57.2726
61.8195
67.0301
72.8369
79.1521
85.8687
92.8633
100
-300
-300
-300
-300
-300
-300
-300
-300
-300
-300
-300
-300
-300
-300
100
93.145
86.4218
79.9563
73.8632
68.2422
63.1756
58.7277
54.9458
51.8633
49.5023
47.8777
47.0002
46.8787
47.521
48.9334
51.1186
54.0728
57.7817
62.2163
67.3297
73.0544
79.3014
85.9614
92.9075
100
-300
-300
-300
-300
-300
-300
-300
-300
-300
-300
100
92.5281
85.205
78.1728
71.561
65.4816
60.0263
55.2659
51.2511
48.0155
45.5788
43.951
43.1364
43.1364
43.951
45.5788
48.0155
51.2511
55.2659
60.0263
65.4816
71.561
78.1728
85.205
92.5281
100
-300
-300
-300
-300
-300
-300
-300
-300
-300
-300
-300
-300
-300
-300
100
92.9201
85.9747
79.2923
72.9901
67.1699
61.9157
57.2936
53.3528
50.1282
47.6442
45.9182
44.9638
44.7929
45.4165
46.8441
49.0811
52.1257
55.9645
60.5683
65.8886
71.8547
78.3732
85.3286
92.5868
100
-300
-300
-300
-300
-300
-300
-300
-300
-300
-300
100
92.255
84.6643
77.3752
70.5218
64.2201
58.5655
53.6312
49.4698
46.116
43.5902
41.9029
41.0586
41.0586
41.9029
43.5902
46.116
49.4698
53.6312
58.5655
64.2201
70.5218
77.3752
84.6643
92.255
100
-300
-300
-300
-300
-300
-300
-300
-300
-300
-300
-300
-300
-300
-300
100
92.7923
85.7194
78.9102
72.4819
66.5367
61.159
56.4154
52.3559
49.0172
46.4258
44.6022
43.5637
43.3264
43.9058
45.3155
47.5647
50.6544
54.5732
59.2923
64.7624
70.9102
77.6381
84.8254
92.3312
100
-300
-300
-300
-300
-300
-300
-300
-300
-300
-300
100
92.0366
84.2319
76.7372
69.6906
63.2113
57.3973
52.3239
48.0452
44.5969
41.9999
40.2651
39.397
39.397
40.2651
41.9999
44.5969
48.0452
52.3239
57.3973
63.2113
69.6906
76.7372
84.2319
92.0366
100
-300
-300
-300
-300
-300
-300
-300
-300
-300
-300
-300
-300
-300
-300
100
92.7621
85.6568
78.8109
72.3397
66.3435
60.9054
56.0913
51.9513
48.5233
45.8364
43.9146
42.7803
42.4551
42.9604
44.3154
46.5346
49.6229
53.5717
58.3538
63.9192
70.193
77.074
84.4363
92.1326
100
-300
-300
-300
-300
-300
-300
-300
-300
-300
-300
100
91.8651
83.8923
76.2363
69.038
62.4192
56.48
51.2974
46.9266
43.4041
40.7512
38.9791
38.0922
38.0922
38.9791
40.7512
43.4041
46.9266
51.2974
56.48
62.4192
69.038
76.2363
83.8923
91.8651
100
-300
-300
-300
-300
-300
-300
-300
-300
-300
-300
-300
-300
-300
-300
100
92.8303
85.7885
78.9967
72.5661
66.5931
61.1574
56.3227
52.1383
48.6429
45.8681
43.8427
42.5953
42.155
42.551
43.8102
45.9538
48.9922
52.9207
57.7143
63.3237
69.6725
76.6563
84.1442
91.9823
100
-300
-300
-300
-300
-300
-300
-300
-300
-300
-300
100
91.7329
83.6305
75.8501
68.5348
61.8085
55.7728
50.5059
46.0642
42.4844
39.7885
37.9876
37.0863
37.0863
37.9876
39.7885
42.4844
46.0642
50.5059
55.7728
61.8085
68.5348
75.8501
83.6305
91.7329
100
-300
-300
-300
-300
-300
-300
-300
-300
-300
-300
-300
-300
-300
-300
100
92.9981
86.117
79.4717
73.1665
67.2916
61.9216
57.116
52.9219
49.3779
46.5186
44.3784
42.994
42.4046
42.6498
43.7666
45.7848
48.7221
52.5789
57.3336
62.9382
69.3154
76.358
83.9299
91.8704
100
-300
-300
-300
-300
-300
-300
-300
-300
-300
-300
100
91.6328
83.4323
75.5577
68.1538
61.3461
55.2373
49.9068
45.4112
41.7882
39.0596
37.2369
36.3248
36.3248
37.2369
39.0596
41.7882
45.4112
49.9068
55.2373
61.3461
68.1538
75.5577
83.4323
91.6328
100
-300
-300
-300
-300
-300
-300
-300
-300
-300
-300
-300
-300
-300
-300
100
93.2675
86.6462
80.2414
74.1484
68.4488
63.2094
58.4835
54.3138
50.7378
47.7927
45.5199
43.9669
43.1862
43.2312
44.1521
45.99
48.7714
52.5036
57.1692
62.7223
69.0857
76.1495
83.7725
91.7859
100
-300
-300
-300
-300
-300
-300
-300
-300
-300
-300
100
91.5584
83.285
75.3403
67.8706
61.0023
54.8392
49.4613
44.9258
41.2705
38.5178
36.6788
35.7586
35.7586
36.6788
38.5178
41.2705
44.9258
49.4613
54.8392
61.0023
67.8706
75.3403
83.285
91.5584
100
-300
-300
-300
-300
-300
-300
-300
-300
-300
-300
-300
-300
-300
-300
100
93.6403
87.3798
81.3123
75.5213
70.0774
65.0368
60.4436
56.3335
52.7404
49.7035
47.2725
45.5096
44.485
44.2711
44.9347
46.5311
49.0978
52.6499
57.1757
62.6325
68.9439
75.9979
83.648
91.7161
100
-300
-300
-300
-300
-300
-300
-300
-300
-300
-300
100
91.5041
83.1774
75.1816
67.6637
60.7513
54.5485
49.136
44.5714
40.8926
38.1221
36.2714
35.3452
35.3452
36.2714
38.1221
40.8926
44.5713
49.136
54.5485
60.7513
67.6637
75.1816
83.1774
91.5041
100
-300
-300
-300
-300
-300
-300
-300
-300
-300
-300
-300
-300
-300
-300
100
94.1179
88.3213
82.6902
77.2945
72.1911
67.4227
63.0204
59.0083
55.4131
52.2734
49.649
47.6219
46.2879
45.7446
46.0805
47.3675
49.6559
52.9699
57.3043
62.6208
68.8451
75.8647
83.5277
91.6457
100
-300
-300
-300
-300
-300
-300
-300
-300
-300
-300
100
91.4651
83.1002
75.0677
67.5154
60.5712
54.3401
48.9027
44.3171
40.6215
37.8383
35.9791
35.0487
35.0487
35.9791
37.8383
40.6215
44.3171
48.9027
54.34
60.5712
67.5154
75.0677
83.1002
91.4651
100
-300
-300
-300
-300
-300
-300
-300
-300
-300
-300
-300
-300
-300
-300
100
94.7005
89.4715
84.3779
79.4745
74.8022
70.387
66.2423
62.3743
58.7947
55.5363
52.6696
50.3064
48.5803
47.6231
47.5505
48.4535
50.3956
53.4105
57.5003
62.6324
68.737
75.7031
83.3757
91.5549
100
-300
-300
-300
-300
-300
-300
-300
-300
-300
-300
100
91.4376
83.0458
74.9875
67.4109
60.4444
54.1932
48.7384
44.1381
40.4305
37.6384
35.7732
34.8399
34.8399
35.7732
37.6384
40.4305
44.138
48.7383
54.1932
60.4444
67.4109
74.9875
83.0458
91.4376
100
-300
-300
-300
-300
-300
-300
-300
-300
-300
-300
-300
-300
-300
-300
100
95.3859
90.827
86.3725
82.0613
77.9173
73.947
70.1406
66.4773
62.9401
59.5424
56.3635
53.5653
51.3404
49.8684
49.2964
49.7351
51.2597
53.9123
57.7021
62.6039
68.5558
75.4534
83.1434
91.4154
100
-300
-300
-300
-300
-300
-300
-300
-300
-300
-300
100
91.4186
83.0082
74.932
67.3386
60.3566
54.0915
48.6246
44.0141
40.2984
37.5001
35.6307
34.6953
34.6953
35.6307
37.5
40.2984
44.0141
48.6246
54.0915
60.3566
67.3385
74.932
83.0082
91.4186
100
-300
-300
-300
-300
-300
-300
-300
-300
-300
-300
-300
-300
-300
-300
100
96.1688
92.3778
88.6618
85.0441
81.5321
78.1119
74.7463
71.3752
67.9298
64.3714
60.7722
57.3943
54.5309
52.4247
51.2551
51.1471
52.1829
54.4091
57.8409
62.4622
68.2238
75.0369
82.7612
91.1842
100
-300
-300
-300
-300
-300
-300
-300
-300
-300
-300
100
91.4057
82.9826
74.8942
67.2894
60.2969
54.0224
48.5473
43.9298
40.2085
37.406
35.5339
34.597
34.597
35.5338
37.406
40.2085
43.9298
48.5472
54.0224
60.2969
67.2893
74.8942
82.9826
91.4057
100
-300
-300
-300
-300
-300
-300
-300
-300
-300
-300
-300
-300
-300
-300
100
97.0392
94.1054
91.2203
88.3948
85.6228
82.8734
80.082
77.1397
73.89
70.1656
65.9529
61.769
58.0824
55.2075
53.3421
52.6107
53.0916
54.8295
57.8426
62.1248
67.6458
74.3463
82.1222
90.7869
100
-300
-300
-300
-300
-300
-300
-300
-300
-300
-300
100
91.3971
82.9655
74.869
67.2565
60.2571
53.9763
48.4956
43.8735
40.1485
37.3431
35.4691
34.5313
34.5313
35.4691
37.3431
40.1484
43.8734
48.4955
53.9761
60.2569
67.2564
74.8689
82.9655
91.397
100
-300
-300
-300
-300
-300
-300
-300
-300
-300
-300
-300
-300
-300
-300
100
97.9821
95.9803
94.0062
92.0624
90.1361
88.1895
86.1436
83.8474
81.0267
77.2267
71.9732
66.6058
61.8639
58.0883
55.4469
54.0341
53.9075
55.1016
57.6332
61.5051
66.7103
73.235
81.0527
90.0779
100
-300
-300
-300
-300
-300
-300
-300
-300
-300
-300
100
91.3914
82.9543
74.8525
67.235
60.2309
53.9459
48.4617
43.8366
40.109
37.3019
35.4266
34.4882
34.4881
35.4265
37.3017
40.1089
43.8363
48.4614
53.9457
60.2306
67.2348
74.8523
82.9542
91.3913
100
-300
-300
-300
-300
-300
-300
-300
-300
-300
-300
-300
-300
-300
-300
100
98.9773
97.962
96.9587
95.967
94.9766
93.9602
92.8567
91.5304
89.6539
86.3372
78.8253
71.6612
65.6351
60.8811
57.4338
55.3176
54.5549
55.1625
57.1505
60.5257
65.3006
71.5128
79.2597
88.726
100
-300
-300
-300
-300
-300
-300
-300
-300
-300
-300
100
91.3877
82.9471
74.8418
67.221
60.214
53.9264
48.4398
43.8127
40.0836
37.2752
35.3991
34.4603
34.4602
35.399
37.2749
40.0833
43.8123
48.4394
53.9259
60.2136
67.2207
74.8415
82.9468
91.3876
100
-300
-300
-300
-300
-300
-300
-300
-300
-300
-300
-300
-300
-300
-300
100
100
100
100
100
100
100
100
100
100
100
85.8726
76.2981
69.0016
63.3509
59.1577
56.3687
54.9728
54.9698
56.3598
59.1433
63.3316
68.9787
76.2742
85.8534
100
100
100
100
100
100
100
100
100
100
100
100
91.3854
82.9425
74.835
67.2122
60.2032
53.9139
48.4258
43.7975
40.0674
37.2582
35.3816
34.4425
34.4424
35.3813
37.2578
40.0668
43.7968
48.4251
53.9132
60.2025
67.2116
74.8345
82.9421
91.3852
100
-300
-300
-300
-300
-300
-300
-300
-300
-300
-300
-300
-300
-300
-300
-300
-300
-300
-300
-300
-300
-300
-300
-300
-300
100
88.7283
79.2596
71.5074
65.2883
60.506
57.1232
55.1279
54.5137
55.2704
57.3814
60.8249
65.5767
71.603
78.7708
86.2904
89.6111
91.4908
92.8207
93.9281
94.9489
95.9442
96.9412
97.9501
98.9714
100
100
91.384
82.9396
74.8308
67.2067
60.1965
53.9061
48.4171
43.788
40.0572
37.2475
35.3705
34.4312
34.431
35.3701
37.2468
40.0562
43.7868
48.4159
53.9049
60.1953
67.2056
74.8299
82.9389
91.3836
100
-300
-300
-300
-300
-300
-300
-300
-300
-300
-300
-300
-300
-300
-300
-300
-300
-300
-300
-300
-300
-300
-300
-300
-300
100
90.0684
81.0322
73.2025
66.6654
61.4482
57.5649
55.023
53.8199
53.9389
55.3458
57.9831
61.7567
66.499
71.8695
77.1284
80.9341
83.7612
86.0648
88.1193
90.0755
92.0125
93.9679
95.9543
97.969
100
100
91.3831
82.9378
74.8281
67.2033
60.1924
53.9013
48.4117
43.782
40.0508
37.2407
35.3635
34.4239
34.4237
35.3627
37.2395
40.0492
43.7801
48.4096
53.8992
60.1903
67.2014
74.8266
82.9367
91.3825
100
-300
-300
-300
-300
-300
-300
-300
-300
-300
-300
-300
-300
-300
-300
-300
-300
-300
-300
-300
-300
-300
-300
-300
-300
100
90.7656
82.0794
74.2822
67.5611
62.0208
57.721
54.6924
52.9413
52.4498
53.173
55.033
57.9053
61.5923
65.7797
69.9986
73.7312
76.9913
79.9461
82.7521
85.5182
88.3087
91.1542
94.0605
97.0165
100
100
91.3825
82.9367
74.8265
67.2012
60.1898
53.8983
48.4083
43.7782
40.0467
37.2363
35.3588
34.4191
34.4186
35.3576
37.2343
40.044
43.7751
48.4048
53.8947
60.1863
67.1981
74.824
82.9349
91.3816
100
-300
-300
-300
-300
-300
-300
-300
-300
-300
-300
-300
-300
-300
-300
-300
-300
-300
-300
-300
-300
-300
-300
-300
-300
100
91.1481
82.6895
74.9307
68.085
62.2934
57.645
54.1897
51.9436
50.8918
50.9879
52.1497
54.2522
57.1162
60.4987
64.1066
67.6774
71.1389
74.5297
77.9186
81.3652
84.9067
88.5563
92.3063
96.1327
100
100
91.3822
82.9361
74.8255
67.1998
60.1882
53.8964
48.406
43.7757
40.0438
37.2332
35.3554
34.4154
34.4147
35.3534
37.2299
40.0395
43.7706
48.4004
53.8905
60.1825
67.1947
74.8213
82.9331
91.3806
100
-300
-300
-300
-300
-300
-300
-300
-300
-300
-300
-300
-300
-300
-300
-300
-300
-300
-300
-300
-300
-300
-300
-300
-300
100
91.3589
83.0314
75.2882
68.3405
62.3428
57.3999
53.5745
50.892
49.3436
48.8872
49.4476
50.9142
53.1398
55.9449
59.1366
62.553
66.1147
69.8081
73.6501
77.661
81.8503
86.2105
90.7172
95.3305
100
100
91.382
82.9356
74.8249
67.199
60.187
53.895
48.4044
43.7738
40.0416
37.2306
35.3524
34.412
34.4109
35.3492
37.2253
40.0346
43.7654
48.3952
53.8855
60.1778
67.1907
74.8181
82.9308
91.3794
100
-300
-300
-300
-300
-300
-300
-300
-300
-300
-300
-300
-300
-300
-300
-300
-300
-300
-300
-300
-300
-300
-300
-300
-300
100
91.4694
83.2067
75.4539
68.4127
62.2394
57.046
52.9031
49.8438
47.8663
46.9371
46.9927
47.9419
49.6691
52.0424
54.9282
58.2146
61.8308
65.7439
69.9419
74.4179
79.158
84.1351
89.3069
94.6174
100
100
91.3818
82.9353
74.8244
67.1983
60.1862
53.8939
48.403
43.772
40.0394
37.2279
35.3492
34.4081
34.4064
35.344
37.2195
40.0283
43.7587
48.3883
53.8787
60.1714
67.185
74.8135
82.9275
91.3778
100
-300
-300
-300
-300
-300
-300
-300
-300
-300
-300
-300
-300
-300
-300
-300
-300
-300
-300
-300
-300
-300
-300
-300
-300
100
91.5196
83.2781
75.4968
68.3666
62.0412
56.6346
52.2223
48.8432
46.503
45.1777
44.817
45.3488
46.6845
48.7266
51.3791
54.5598
58.2089
62.2873
66.768
71.6259
76.829
82.333
88.0792
93.9957
100
100
91.3817
82.935
74.824
67.1977
60.1853
53.8927
48.4014
43.77
40.0368
37.2246
35.3451
34.4031
34.4003
35.3369
37.2114
40.0193
43.749
48.3783
53.8687
60.162
67.1766
74.8066
82.9227
91.3753
100
-300
-300
-300
-300
-300
-300
-300
-300
-300
-300
-300
-300
-300
-300
-300
-300
-300
-300
-300
-300
-300
-300
-300
-300
100
91.533
83.2858
75.4643
68.25
61.7923
56.2053
51.5669
47.921
45.2797
43.6283
42.9289
43.1265
44.1539
45.9386
48.4102
51.5066
55.1776
59.3837
64.0902
69.2603
74.8484
80.7959
87.0299
93.4636
100
100
91.3815
82.9347
74.8235
67.1969
60.1843
53.8913
48.3995
43.7673
40.0333
37.2201
35.3393
34.396
34.3917
35.3267
37.1997
40.0061
43.7348
48.3634
53.8539
60.1479
67.164
74.7964
82.9154
91.3715
100
-300
-300
-300
-300
-300
-300
-300
-300
-300
-300
-300
-300
-300
-300
-300
-300
-300
-300
-300
-300
-300
-300
-300
-300
100
91.5246
83.2556
75.3882
68.0959
61.5241
55.7857
50.9603
47.095
44.2079
42.2921
41.3209
41.253
42.038
43.6222
45.9531
48.9829
52.6699
56.9762
61.8633
67.287
73.1915
79.5072
86.1486
93.0163
100
100
91.3814
82.9344
74.8229
67.196
60.1829
53.8894
48.3968
43.7637
40.0285
37.2138
35.3313
34.3858
34.3793
35.3119
37.1825
39.9869
43.7138
48.3415
53.8318
60.1268
67.1452
74.7809
82.9045
91.3658
100
-300
-300
-300
-300
-300
-300
-300
-300
-300
-300
-300
-300
-300
-300
-300
-300
-300
-300
-300
-300
-300
-300
-300
-300
100
91.5033
83.2039
75.2888
67.9258
61.2566
55.3927
50.4145
46.3717
43.2872
41.1606
39.9741
39.6975
40.2935
41.7221
43.9439
46.922
50.6215
55.0069
60.0382
65.666
71.8277
78.4445
85.4209
92.6466
100
100
91.3812
82.9339
74.8221
67.1948
60.1811
53.8868
48.3932
43.7587
40.0218
37.2049
35.3198
34.3714
34.3615
35.2906
37.1577
39.9588
43.6832
48.3092
53.7993
60.0957
67.1173
74.758
82.8882
91.3573
100
-300
-300
-300
-300
-300
-300
-300
-300
-300
-300
-300
-300
-300
-300
-300
-300
-300
-300
-300
-300
-300
-300
-300
-300
100
91.4745
83.14
75.178
67.7518
61.0003
55.0337
49.9326
45.7489
42.5086
40.2167
38.8625
38.4242
38.8744
40.1834
42.3218
45.2606
48.9705
53.4185
58.5642
64.355
70.723
77.5825
84.8301
92.3463
100
100
91.3809
82.9333
74.8211
67.1932
60.1787
53.8833
48.3882
43.7518
40.0124
37.1925
35.3037
34.351
34.3363
35.2603
37.1223
39.9186
43.6391
48.2625
53.752
60.0502
67.0762
74.7242
82.864
91.3448
100
-300
-300
-300
-300
-300
-300
-300
-300
-300
-300
-300
-300
-300
-300
-300
-300
-300
-300
-300
-300
-300
-300
-300
-300
100
91.4408
83.0685
75.061
67.5786
60.758
54.7085
49.5104
45.2168
41.8563
39.4378
37.9556
37.3945
37.7344
38.9533
41.029
43.9388
47.6579
52.1556
57.3914
63.3109
69.8423
76.8947
84.3583
92.1063
100
100
91.3805
82.9325
74.8196
67.191
60.1754
53.8785
48.3814
43.7424
39.9996
37.1754
35.2815
34.3227
34.3012
35.2179
37.0724
39.8616
43.5761
48.1956
53.6838
59.9843
67.0166
74.6749
82.8287
91.3263
100
-300
-300
-300
-300
-300
-300
-300
-300
-300
-300
-300
-300
-300
-300
-300
-300
-300
-300
-300
-300
-300
-300
-300
-300
100
91.4025
82.9899
74.9378
67.405
60.5265
54.4107
49.1376
44.7608
41.3103
38.7976
37.2207
36.5691
36.8278
37.9807
40.011
42.9008
46.6285
51.1656
56.472
62.492
69.1512
76.3547
83.9876
91.9178
100
100
91.38
82.9314
74.8178
67.1881
60.171
53.8721
48.3723
43.7297
39.9823
37.1523
35.2512
34.2841
34.253
35.1592
37.003
39.782
43.4877
48.101
53.5869
59.89
66.9308
74.6036
82.7775
91.2995
100
-300
-300
-300
-300
-300
-300
-300
-300
-300
-300
-300
-300
-300
-300
-300
-300
-300
-300
-300
-300
-300
-300
-300
-300
100
91.3583
82.9012
74.804
67.2245
60.297
54.1289
48.7996
44.3623
40.8476
38.2684
36.6248
35.9096
36.1115
37.2185
39.2178
42.095
45.8314
50.4001
55.7616
61.8594
68.6172
75.9373
83.7011
91.772
100
100
91.3793
82.93
74.8154
67.1843
60.1654
53.8638
48.3604
43.713
39.9594
37.1215
35.2108
34.2322
34.188
35.0797
36.9083
39.6725
43.3652
47.969
53.4507
59.7566
66.8084
74.5013
82.7037
91.2608
100
-300
-300
-300
-300
-300
-300
-300
-300
-300
-300
-300
-300
-300
-300
-300
-300
-300
-300
-300
-300
-300
-300
-300
-300
100
91.305
82.7964
74.6506
67.026
60.0562
53.8475
48.4781
44.0001
40.4437
37.8217
36.1355
35.3796
35.5453
36.6234
38.6039
41.4753
45.221
49.8156
55.22
61.3775
68.2107
75.6196
83.483
91.6611
100
100
91.3785
82.9282
74.8123
67.1795
60.1581
53.8531
48.3451
43.6914
39.9296
37.0814
35.1578
34.1638
34.1016
34.9734
36.7809
39.5242
43.198
47.7872
53.2614
59.5696
66.6356
74.3557
82.5981
91.2052
100
-300
-300
-300
-300
-300
-300
-300
-300
-300
-300
-300
-300
-300
-300
-300
-300
-300
-300
-300
-300
-300
-300
-300
-300
100
91.2377
82.666
74.4647
66.7935
59.786
53.5468
48.1519
43.6513
40.0732
37.4299
35.7223
34.9457
35.0931
36.1568
38.1294
41.0011
44.7573
49.3737
54.812
61.0153
67.9055
75.3813
83.3196
91.5779
100
100
91.3775
82.9259
74.8085
67.1734
60.1489
53.8396
48.3257
43.664
39.8917
37.03
35.0896
34.0751
33.9891
34.8339
36.6124
39.3263
42.9729
47.5402
53.0016
59.3101
66.3933
74.1497
82.4473
91.1253
100
-300
-300
-300
-300
-300
-300
-300
-300
-300
-300
-300
-300
-300
-300
-300
-300
-300
-300
-300
-300
-300
-300
-300
-300
100
91.1487
82.4961
74.2276
66.5058
59.4636
53.2032
47.797
43.2912
39.711
37.0662
35.3568
34.5778
34.7228
35.7854
37.7597
40.6376
44.406
49.0418
54.5074
60.746
67.6793
75.205
83.1987
91.5165
100
100
91.3763
82.9233
74.8039
67.1661
60.1378
53.8231
48.3017
43.63
39.8444
36.9655
35.0035
33.9625
33.8451
34.6541
36.3934
39.0668
42.6745
47.209
52.6489
58.9532
66.0557
73.859
82.2323
91.0106
100
-300
-300
-300
-300
-300
-300
-300
-300
-300
-300
-300
-300
-300
-300
-300
-300
-300
-300
-300
-300
-300
-300
-300
-300
100
91.0271
82.2667
73.9137
66.1343
59.0602
52.7889
47.3868
42.8944
39.3319
36.7057
35.0135
34.2494
34.4069
35.4807
37.4658
40.3558
44.1387
48.7927
54.281
60.5473
67.5131
75.0759
83.1104
91.4716
100
100
91.3748
82.9201
74.7984
67.1574
60.1244
53.8032
48.2727
43.5886
39.7865
36.8862
34.8969
33.8223
33.6645
34.4267
36.1139
38.732
42.2852
46.7711
52.1758
58.4671
65.588
73.4497
81.9251
90.845
100
-300
-300
-300
-300
-300
-300
-300
-300
-300
-300
-300
-300
-300
-300
-300
-300
-300
-300
-300
-300
-300
-300
-300
-300
100
90.8564
81.9488
73.4874
65.642
58.5403
52.2713
46.8922
42.4345
38.9118
36.3254
34.6698
33.9378
34.1225
35.2192
37.2239
40.1317
43.932
48.6042
54.1124
60.401
67.3918
74.9822
83.0466
91.4393
100
100
91.3732
82.9165
74.7921
67.1473
60.1089
53.7798
48.2384
43.5395
39.7173
36.7907
34.7679
33.6513
33.4426
34.1448
35.7639
38.3082
41.7857
46.201
51.5492
57.8106
64.9431
72.8727
81.4829
90.6026
100
-300
-300
-300
-300
-300
-300
-300
-300
-300
-300
-300
-300
-300
-300
-300
-300
-300
-300
-300
-300
-300
-300
-300
-300
100
90.6103
81.499
72.8982
64.9795
57.8599
51.6133
46.282
41.8856
38.4281
35.9049
34.3067
33.6244
33.851
34.9821
37.0152
39.9468
43.7677
48.4588
53.9854
60.2928
67.3032
74.9143
83.0006
91.4161
100
100
91.3714
82.9125
74.7852
67.136
60.0913
53.7532
48.199
43.4825
39.6366
36.6786
34.6151
33.4474
33.1758
33.8028
35.3348
37.7821
41.157
45.4711
50.731
56.9332
64.0576
72.0566
80.8382
90.24
100
-300
-300
-300
-300
-300
-300
-300
-300
-300
-300
-300
-300
-300
-300
-300
-300
-300
-300
-300
-300
-300
-300
-300
-300
100
90.2451
80.8489
72.0735
64.0817
56.9658
50.7733
45.5245
41.2226
37.8609
35.4272
33.9089
33.2949
33.5781
34.7553
36.8255
39.7867
43.6318
48.3433
53.8877
60.2116
67.238
74.8652
82.9676
91.3995
100
100
91.3696
82.9084
74.7778
67.1239
60.0721
53.7237
48.155
43.4182
39.5447
36.55
34.4386
33.2099
32.8624
33.3972
34.8205
37.1435
40.3821
44.5548
49.6804
55.775
62.8486
70.8965
79.8794
89.6766
100
-300
-300
-300
-300
-300
-300
-300
-300
-300
-300
-300
-300
-300
-300
-300
-300
-300
-300
-300
-300
-300
-300
-300
-300
100
89.68
79.8863
70.9075
62.8643
55.7962
49.7078
44.5894
40.4246
37.1944
34.8801
33.4656
32.9391
33.2942
34.529
36.6446
39.6414
43.5144
48.248
53.8104
60.1496
67.1896
74.8294
82.9439
91.3877
100
100
91.3678
82.9044
74.7705
67.1115
60.0521
53.6925
48.1075
43.3479
39.4432
36.4065
34.24
32.9404
32.5035
32.9283
34.2192
36.3872
39.45
43.431
48.3596
54.2719
61.2131
69.2402
78.4145
88.7469
100
-300
-300
-300
-300
-300
-300
-300
-300
-300
-300
-300
-300
-300
-300
-300
-300
-300
-300
-300
-300
-300
-300
-300
-300
100
88.7491
78.419
69.2473
61.2231
54.2854
48.3771
43.453
39.477
36.4196
34.2571
32.9717
32.5522
32.9938
34.2973
36.4665
39.5045
43.4089
48.1665
53.7474
60.1013
67.1532
74.8032
82.927
91.3793
100
100
91.3664
82.9011
74.764
67.0999
60.0325
53.6609
48.0584
43.2739
39.3347
36.2513
34.0229
32.6429
32.1037
32.4007
33.5354
35.5162
38.3598
42.0909
46.7442
52.3688
59.0398
66.8812
76.108
87.0629
100
-300
-300
-300
-300
-300
-300
-300
-300
-300
-300
-300
-300
-300
-300
-300
-300
-300
-300
-300
-300
-300
-300
-300
-300
100
87.0642
76.1109
66.8857
59.0461
52.3773
46.7552
42.1047
38.3767
35.5365
33.5591
32.4278
32.1341
32.6763
34.0587
36.2887
39.3729
43.312
48.0952
53.6952
60.0632
67.126
74.7844
82.9152
91.3736
100
100
91.3658
82.8991
74.7594
67.0906
60.0153
53.6314
48.0105
43.1995
39.2233
36.0893
33.7934
32.3248
31.6716
31.8249
32.781
34.5439
37.1256
40.5466
44.8379
50.0466
56.2498
63.5943
72.4087
83.5794
100
100
100
100
100
100
100
100
100
100
100
100
100
100
100
100
100
100
100
100
100
100
100
100
100
100
83.5803
72.4105
63.5971
56.2537
50.0518
44.8447
40.5551
37.136
34.5564
32.7956
31.8416
31.6903
32.3453
33.8153
36.1123
39.2468
43.2229
48.0331
53.6525
60.0342
67.1066
74.772
82.9077
91.3702
100
100
91.3663
82.8995
74.7583
67.0856
60.0031
53.6072
47.9679
43.1297
39.1149
35.9276
33.5599
31.9965
31.2204
31.217
31.9764
33.4957
35.7789
38.8371
42.6882
47.3583
52.8844
59.3193
66.7245
75.0692
83.5793
87.0627
88.7465
89.676
90.239
90.601
90.8423
91.0064
91.1187
91.1948
91.2448
91.275
91.2893
91.2893
91.275
91.2448
91.1948
91.1187
91.0064
90.8424
90.601
90.239
89.676
88.7466
87.0627
83.5795
75.0698
66.7256
59.321
52.8868
47.3615
42.6923
38.8422
35.7852
33.5032
31.9852
31.2271
31.2317
32.0089
33.5732
35.9416
39.1291
43.1439
47.9816
53.62
60.0145
67.0953
74.7659
82.9048
91.369
100
100
91.3688
82.9038
74.7629
67.088
59.9998
53.593
47.936
43.071
39.0172
35.7757
33.3339
31.6721
30.7674
30.5989
31.1494
32.4077
34.3676
37.0277
40.388
44.4469
49.1935
54.5912
60.5333
66.7244
72.4085
76.1077
78.4138
79.8782
80.8363
81.4798
81.9201
82.2243
82.4345
82.5781
82.6728
82.7303
82.7574
82.7574
82.7303
82.6728
82.5781
82.4345
82.2243
81.9201
81.4798
80.8363
79.8782
78.4139
76.1077
72.4087
66.7248
60.534
54.5923
49.195
44.4489
40.3905
37.0308
34.3714
32.4122
31.1547
30.6049
30.7742
31.6794
33.3418
35.7839
39.0257
43.0794
47.9441
53.6006
60.0066
67.0938
74.7674
82.9069
91.3704
100
100
91.3743
82.9141
74.7762
67.1019
60.0103
53.595
47.9222
43.0319
38.9405
35.6453
33.1297
31.3688
30.334
29.9974
30.3342
31.3242
32.9509
35.1995
38.0532
41.4865
45.4548
49.875
54.5912
59.3191
63.594
66.8806
69.2393
70.8949
72.0539
72.8683
73.4426
73.8476
74.1316
74.3275
74.4577
74.537
74.5746
74.5746
74.537
74.4577
74.3275
74.1316
73.8476
73.4426
72.8683
72.0539
70.8949
69.2393
66.8807
63.5942
59.3194
54.5916
49.8756
45.4556
41.4876
38.0546
35.2013
32.9531
31.3269
30.3373
30.0009
30.3379
31.3731
33.1344
35.6502
38.9455
43.0368
47.927
53.5994
60.0143
67.1053
74.7789
82.9159
91.3753
100
100
91.3843
82.9331
74.8025
67.1327
60.0417
53.6213
47.9361
43.0236
38.8975
35.5514
32.9647
31.1073
29.9448
29.4428
29.5688
30.294
31.592
33.4367
35.7979
38.6347
41.8857
45.4547
49.1934
52.8842
56.2494
59.0391
61.2119
62.8466
64.0543
64.9376
65.5792
66.0416
66.371
66.6009
66.755
66.8494
66.8942
66.8942
66.8494
66.755
66.6009
66.371
66.0416
65.5792
64.9376
64.0543
62.8467
61.2119
59.0391
56.2495
52.8843
49.1937
45.4551
41.8861
38.6354
35.7987
33.4377
31.5932
30.2955
29.5706
29.4448
29.9471
31.1098
32.9674
35.5543
38.9004
43.0265
47.9388
53.6239
60.044
67.1347
74.8041
82.9341
91.3848
100
100
91.4004
82.9645
74.8473
67.1878
60.1028
53.6826
47.99
43.0603
38.9042
35.5122
32.8595
30.9114
29.6279
28.9684
28.8935
29.3665
30.3527
31.8174
33.7214
36.0159
38.6347
41.4864
44.4468
47.358
50.0461
52.3681
54.2706
55.7728
56.9295
57.8045
58.4571
58.9374
59.285
59.5306
59.6966
59.799
59.8478
59.8478
59.799
59.6966
59.5306
59.285
58.9374
58.4571
57.8045
56.9295
55.7728
54.2706
52.3681
50.0462
47.3581
44.447
41.4866
38.635
36.0163
33.7219
31.818
30.3535
29.3673
28.8945
28.9696
29.6292
30.9128
32.861
35.5138
38.9058
43.0619
47.9916
53.6841
60.1041
67.1889
74.8482
82.9651
91.4008
100
100
91.4253
83.0132
74.9177
67.2766
60.2052
53.7927
48.0997
43.1595
38.9804
35.5496
32.8386
30.8085
29.4143
28.6098
28.3494
28.5901
29.2908
30.4102
31.9043
33.7214
35.7979
38.0531
40.3879
42.688
44.8375
46.7434
48.3582
49.678
50.727
51.5427
52.1652
52.6321
52.9751
53.2203
53.3876
53.4914
53.541
53.541
53.4914
53.3876
53.2203
52.9751
52.6321
52.1652
51.5427
50.727
49.678
48.3582
46.7434
44.8375
42.688
40.388
38.0532
35.798
33.7216
31.9046
30.4105
29.2912
28.5906
28.35
28.6104
29.415
30.8093
32.8395
35.5505
38.9813
43.1604
48.1006
53.7935
60.206
67.2772
74.9182
83.0136
91.4255
100
100
91.4621
83.0854
75.0229
67.411
60.3638
53.9687
48.2848
43.3433
39.1502
35.6899
32.9308
30.8299
29.3383
28.4047
27.9787
28.012
28.4587
29.2736
30.4102
31.8174
33.4366
35.1994
37.0275
38.8368
40.5461
42.0901
43.4296
44.5524
45.4671
46.1944
46.7605
47.1921
47.5136
47.746
47.9059
48.0057
48.0536