# vtk DataFile Version 2.0
LBE two cylinders
ASCII
DATASET STRUCTURED_POINTS
DIMENSIONS 76 76 1
ASPECT_RATIO 1 1 1
ORIGIN 0 0 0
POINT_DATA 5776
SCALARS temp double 1
LOOKUP_TABLE default
100
100
100
100
100
100
100
100
100
100
100
100
100
100
100
100
100
100
100
100
100
100
100
100
100
100
-300
-300
-300
-300
-300
-300
-300
-300
-300
-300
-300
-300
-300
-300
100
100
100
100
100
100
100
100
100
100
100
100
100
100
100
100
100
100
100
100
100
100
100
100
100
100
-300
-300
-300
-300
-300
-300
-300
-300
-300
-300
100
97.9183
95.9218
94.0853
92.4649
91.0933
89.9796
89.1123
88.4655
88.0054
87.6973
87.5106
87.4232
87.4232
87.5106
87.6973
88.0054
88.4655
89.1123
89.9796
91.0933
92.4649
94.0853
95.9218
97.9183
100
-300
-300
-300
-300
-300
-300
-300
-300
-300
-300
-300
-300
-300
-300
100
97.9183
95.9218
94.0854
92.465
91.0934
89.9797
89.1124
88.4656
88.0055
87.6974
87.5107
87.4232
87.4232
87.5107
87.6973
88.0054
88.4655
89.1123
89.9796
91.0933
92.4649
94.0853
95.9218
97.9183
100
-300
-300
-300
-300
-300
-300
-300
-300
-300
-300
100
95.9218
92.0105
88.4127
85.2382
82.5512
80.3695
78.6705
77.4033
76.5021
75.8985
75.5329
75.3615
75.3615
75.5329
75.8985
76.5021
77.4033
78.6705
80.3695
82.5512
85.2382
88.4127
92.0105
95.9218
100
-300
-300
-300
-300
-300
-300
-300
-300
-300
-300
-300
-300
-300
-300
100
95.9218
92.0106
88.4128
85.2384
82.5515
80.3697
78.6707
77.4036
76.5023
75.8987
75.533
75.3617
75.3616
75.533
75.8986
76.5021
77.4034
78.6705
80.3695
82.5513
85.2382
88.4127
92.0105
95.9218
100
-300
-300
-300
-300
-300
-300
-300
-300
-300
-300
100
94.0852
88.4126
83.1946
78.5906
74.6937
71.5296
69.0656
67.228
65.921
65.0458
64.5156
64.2671
64.2671
64.5156
65.0458
65.921
67.228
69.0656
71.5296
74.6937
78.5906
83.1946
88.4126
94.0852
100
-300
-300
-300
-300
-300
-300
-300
-300
-300
-300
-300
-300
-300
-300
100
94.0854
88.4128
83.195
78.5911
74.6943
71.5302
69.0662
67.2286
65.9216
65.0463
64.516
64.2675
64.2674
64.5158
65.046
65.9212
67.2281
69.0657
71.5296
74.6938
78.5906
83.1946
88.4126
94.0852
100
-300
-300
-300
-300
-300
-300
-300
-300
-300
-300
100
92.4646
85.2377
78.5901
72.7248
67.7605
63.7296
60.5909
58.2501
56.5852
55.4703
54.795
54.4785
54.4785
54.795
55.4703
56.5852
58.2501
60.5909
63.7296
67.7605
72.7248
78.5901
85.2377
92.4646
100
-300
-300
-300
-300
-300
-300
-300
-300
-300
-300
-300
-300
-300
-300
100
92.4649
85.2384
78.5911
72.726
67.7618
63.7311
60.5924
58.2515
56.5866
55.4716
54.7961
54.4794
54.4792
54.7956
55.4708
56.5856
58.2503
60.591
63.7297
67.7605
72.7249
78.5901
85.2377
92.4646
100
-300
-300
-300
-300
-300
-300
-300
-300
-300
-300
100
91.0926
82.5499
74.692
67.759
61.8911
57.1267
53.4168
50.6502
48.6826
47.3649
46.5668
46.1928
46.1928
46.5668
47.3649
48.6826
50.6502
53.4168
57.1267
61.8911
67.759
74.692
82.5499
91.0926
100
-300
-300
-300
-300
-300
-300
-300
-300
-300
-300
-300
-300
-300
-300
100
91.0934
82.5514
74.6942
67.7617
61.8942
57.13
53.4202
50.6535
48.6857
47.3678
46.5693
46.1949
46.1945
46.5681
47.3659
48.6833
50.6507
53.4171
57.1269
61.8912
67.7591
74.692
82.5499
91.0926
100
-300
-300
-300
-300
-300
-300
-300
-300
-300
-300
100
89.9778
80.3661
71.525
63.7247
57.1227
51.7625
47.5889
44.4765
42.263
40.7808
39.8831
39.4623
39.4623
39.8831
40.7808
42.263
44.4765
47.5889
51.7625
57.1227
63.7247
71.525
80.3661
89.9778
100
-300
-300
-300
-300
-300
-300
-300
-300
-300
-300
-300
-300
-300
-300
100
89.9796
80.3695
71.5299
63.7307
57.1296
51.7699
47.5964
44.4839
42.27
40.7872
39.8886
39.467
39.4662
39.8861
40.7831
42.2647
44.4776
47.5896
51.763
57.123
63.7248
71.5251
80.3661
89.9778
100
-300
-300
-300
-300
-300
-300
-300
-300
-300
-300
100
89.1084
78.663
69.0551
60.5784
53.4041
47.5794
43.0442
39.6623
37.2573
35.6469
34.6715
34.2144
34.2144
34.6715
35.6469
37.2573
39.6623
43.0442
47.5794
53.4041
60.5784
69.0551
78.663
89.1084
100
-300
-300
-300
-300
-300
-300
-300
-300
-300
-300
-300
-300
-300
-300
100
89.1122
78.6702
69.0655
60.5913
53.4189
47.5953
43.0605
39.6783
37.2724
35.6606
34.6835
34.2246
34.2227
34.678
35.6518
37.2608
39.6648
43.0458
47.5803
53.4047
60.5786
69.0552
78.663
89.1084
100
-300
-300
-300
-300
-300
-300
-300
-300
-300
-300
100
88.4573
77.3874
67.2053
58.2221
50.6194
44.4469
39.6411
36.0576
33.5092
31.8029
30.7694
30.2852
30.2852
30.7694
31.8029
33.5092
36.0576
39.6411
44.4469
50.6194
58.2221
67.2053
77.3874
88.4573
100
-300
-300
-300
-300
-300
-300
-300
-300
-300
-300
-300
-300
-300
-300
100
88.4651
77.4026
67.227
58.2491
50.6502
44.4801
39.6751
36.091
33.5407
31.8316
30.7946
30.3064
30.3025
30.783
31.8132
33.5166
36.0627
39.6444
44.4489
50.6205
58.2226
67.2055
77.3874
88.4573
100
-300
-300
-300
-300
-300
-300
-300
-300
-300
-300
100
87.9888
76.4697
65.8745
56.527
48.616
42.1935
37.1931
33.4646
30.8133
29.0381
27.9629
27.4591
27.4591
27.9629
29.0381
30.8133
33.4646
37.1931
42.1935
48.616
56.527
65.8745
76.4697
87.9888
100
-300
-300
-300
-300
-300
-300
-300
-300
-300
-300
-300
-300
-300
-300
100
88.0046
76.5003
65.9182
56.5814
48.6783
42.2606
37.2619
33.5322
30.8771
29.0962
28.0139
27.5022
27.4942
27.9905
29.0588
30.8283
33.4749
37.1998
42.1975
48.6182
56.5279
65.8748
76.4697
87.9887
100
-300
-300
-300
-300
-300
-300
-300
-300
-300
-300
100
87.6649
75.8352
64.9543
55.3549
47.231
40.6356
35.5008
31.6722
28.9497
27.1269
26.023
25.5057
25.5057
26.023
27.1269
28.9497
31.6722
35.5008
40.6356
47.231
55.3549
64.9543
75.8352
87.6649
100
-300
-300
-300
-300
-300
-300
-300
-300
-300
-300
-300
-300
-300
-300
100
87.6956
75.8948
65.0396
55.4612
47.3527
40.7669
35.6355
31.8046
29.0749
27.2409
26.123
25.5903
25.5747
26.0771
27.1677
28.9791
31.6923
35.5138
40.6433
47.235
55.3566
64.9547
75.8349
87.6647
100
-300
-300
-300
-300
-300
-300
-300
-300
-300
-300
100
87.4495
75.4133
64.3426
54.5758
46.3102
39.6001
34.376
30.4808
27.7111
25.8568
24.7337
24.2075
24.2075
24.7337
25.8568
27.7111
30.4808
34.376
39.6001
46.3102
54.5758
64.3426
75.4133
87.4495
100
-300
-300
-300
-300
-300
-300
-300
-300
-300
-300
-300
-300
-300
-300
100
87.5074
75.5259
64.5036
54.7766
46.5405
39.8485
34.6311
30.7319
27.9487
26.0733
24.9238
24.3684
24.3386
24.8365
25.9341
27.7667
30.5188
34.4002
39.6142
46.3174
54.5784
64.3428
75.4126
87.4489
100
-300
-300
-300
-300
-300
-300
-300
-300
-300
-300
100
87.3118
75.1435
63.9514
54.0775
45.7214
38.9379
33.6567
29.7191
26.9192
25.0447
23.9095
23.3775
23.3775
23.9095
25.0447
26.9192
29.7191
33.6567
38.9379
45.7214
54.0775
63.9514
75.1435
87.3118
100
-300
-300
-300
-300
-300
-300
-300
-300
-300
-300
-300
-300
-300
-300
100
87.4175
75.3491
64.2456
54.4447
46.1429
39.3929
34.1246
30.18
27.3557
25.4428
24.2592
23.6735
23.6187
24.0984
25.1866
27.021
29.7883
33.7006
38.963
45.7336
54.0814
63.9509
75.1415
87.3103
100
-300
-300
-300
-300
-300
-300
-300
-300
-300
-300
100
87.227
74.9774
63.7105
53.7708
45.359
38.5303
33.2141
29.2503
26.4319
24.545
23.4023
22.8668
22.8668
23.4023
24.545
26.4319
29.2503
33.2141
38.5303
45.359
53.7708
63.7105
74.9774
87.227
100
-300
-300
-300
-300
-300
-300
-300
-300
-300
-300
-300
-300
-300
-300
100
87.4137
75.3406
64.2306
54.4203
46.1051
39.3367
34.0441
30.0689
27.208
25.2533
24.025
23.3939
23.2961
23.7382
24.7969
26.6121
29.3721
33.2905
38.5732
45.3787
53.7758
63.7078
74.9724
87.2235
100
-300
-300
-300
-300
-300
-300
-300
-300
-300
-300
100
87.1767
74.8789
63.5678
53.589
45.1442
38.2888
32.9517
28.9725
26.1432
24.2489
23.1018
22.5642
22.5642
23.1018
24.2489
26.1432
28.9725
32.9517
38.2888
45.1442
53.589
63.5678
74.8789
87.1767
100
-300
-300
-300
-300
-300
-300
-300
-300
-300
-300
-300
-300
-300
-300
100
87.4956
75.4993
64.4566
54.6999
46.4216
39.6712
34.3766
30.3796
27.4787
25.4689
24.1747
23.4724
23.3034
23.6794
24.6812
26.4512
29.1795
33.08
38.3589
45.174
53.5934
63.5594
74.8675
87.1692
100
-300
-300
-300
-300
-300
-300
-300
-300
-300
-300
100
87.148
74.8227
63.4862
53.4851
45.0216
38.1508
32.8019
28.8139
25.9783
24.0799
22.9302
22.3915
22.3915
22.9302
24.0799
25.9783
28.8139
32.8019
38.1508
45.0216
53.4851
63.4862
74.8227
87.148
100
-300
-300
-300
-300
-300
-300
-300
-300
-300
-300
-300
-300
-300
-300
100
87.6744
75.8472
64.955
55.3228
47.137
40.4435
35.1685
31.1545
28.2027
26.1138
24.7196
23.9056
23.6227
23.8908
24.7968
26.487
29.1531
33.0092
38.2603
45.0631
53.4845
63.4649
74.798
87.1324
100
-300
-300
-300
-300
-300
-300
-300
-300
-300
-300
100
87.1322
74.7917
63.4413
53.4279
44.954
38.0749
32.7195
28.7266
25.8875
23.9868
22.8357
22.2964
22.2964
22.8357
23.9868
25.8875
28.7266
32.7195
38.0749
44.954
53.4279
63.4413
74.7917
87.1322
100
-300
-300
-300
-300
-300
-300
-300
-300
-300
-300
-300
-300
-300
-300
100
87.9722
76.4276
65.7882
56.3674
48.3425
41.7533
36.5233
32.4954
29.4748
27.27
25.725
24.7399
24.2806
24.3804
25.1358
26.6987
29.2626
33.041
38.2372
45.0057
53.4112
63.3925
74.7406
87.1008
100
-300
-300
-300
-300
-300
-300
-300
-300
-300
-300
100
87.1238
74.7752
63.4174
53.3976
44.9181
38.0345
32.6757
28.6802
25.8393
23.9374
22.7856
22.2459
22.2459
22.7856
23.9374
25.8393
28.6802
32.6757
38.0345
44.9181
53.3976
63.4174
74.7752
87.1238
100
-300
-300
-300
-300
-300
-300
-300
-300
-300
-300
-300
-300
-300
-300
100
88.42
77.3007
67.0437
57.945
50.1687
43.7456
38.5942
34.5567
31.4428
29.0714
27.304
26.0634
25.3398
25.1871
25.7165
27.0877
29.4962
33.1543
38.2619
44.9704
53.3422
63.3138
74.6738
87.0627
100
-300
-300
-300
-300
-300
-300
-300
-300
-300
-300
100
87.1195
74.7668
63.4052
53.382
44.8997
38.0138
32.6532
28.6565
25.8146
23.9121
22.7599
22.22
22.22
22.7599
23.9121
25.8146
28.6565
32.6532
38.0138
44.8997
53.382
63.4052
74.7668
87.1195
100
-300
-300
-300
-300
-300
-300
-300
-300
-300
-300
-300
-300
-300
-300
100
89.0534
78.5369
68.824
60.1871
52.7719
46.5965
41.571
37.5342
34.2983
31.6942
29.6075
27.9963
26.8884
26.3698
26.5729
27.668
29.8524
33.335
38.3111
44.9278
53.2449
63.1977
74.5726
87.004
100
-300
-300
-300
-300
-300
-300
-300
-300
-300
-300
100
87.1173
74.7626
63.3992
53.3743
44.8906
38.0036
32.6421
28.6447
25.8024
23.8995
22.7472
22.2072
22.2072
22.7472
23.8995
25.8024
28.6447
32.6421
38.0036
44.8906
53.3743
63.3992
74.7626
87.1173
100
-300
-300
-300
-300
-300
-300
-300
-300
-300
-300
-300
-300
-300
-300
100
89.9082
80.2066
71.2325
63.2278
56.3147
50.4936
45.6619
41.6489
38.2634
35.3455
32.8118
30.6756
29.0247
27.993
27.7425
28.4558
30.3305
33.5691
38.3595
44.8433
53.0789
63.0031
74.4023
86.9047
100
-300
-300
-300
-300
-300
-300
-300
-300
-300
-300
100
87.1163
74.7606
63.3963
53.3706
44.8863
37.9987
32.6368
28.6391
25.7966
23.8935
22.7411
22.2011
22.2011
22.7411
23.8935
25.7966
28.6391
32.6368
37.9987
44.8863
53.3706
63.3963
74.7606
87.1163
100
-300
-300
-300
-300
-300
-300
-300
-300
-300
-300
-300
-300
-300
-300
100
91.0129
82.3668
74.3544
67.1805
60.9391
55.6089
51.0683
47.1277
43.5773
40.2522
37.1038
34.2369
31.837
30.1084
29.2507
29.4576
30.9221
33.8351
38.3729
44.6707
52.7883
62.6698
74.1097
86.7322
100
-300
-300
-300
-300
-300
-300
-300
-300
-300
-300
100
87.1158
74.7597
63.3949
53.3689
44.8842
37.9964
32.6343
28.6365
25.7939
23.8908
22.7383
22.1982
22.1982
22.7383
23.8908
25.7939
28.6365
32.6343
37.9964
44.8842
53.3689
63.3949
74.7597
87.1158
100
-300
-300
-300
-300
-300
-300
-300
-300
-300
-300
-300
-300
-300
-300
100
92.382
85.0472
78.236
72.1115
66.7363
62.0659
57.9554
54.1819
50.4873
46.6589
42.6662
38.7886
35.3766
32.7322
31.0939
30.6583
31.6033
34.0992
38.3047
44.3478
52.2941
62.1078
73.6084
86.4308
100
-300
-300
-300
-300
-300
-300
-300
-300
-300
-300
100
87.1156
74.7593
63.3943
53.3681
44.8833
37.9954
32.6332
28.6353
25.7926
23.8895
22.737
22.197
22.197
22.737
23.8895
25.7926
28.6353
32.6332
37.9954
44.8833
53.3681
63.3943
74.7593
87.1156
100
-300
-300
-300
-300
-300
-300
-300
-300
-300
-300
-300
-300
-300
-300
100
94.0093
88.2366
82.8648
78.0128
73.7136
69.9036
66.417
62.9864
59.2567
54.8575
49.6651
44.3745
39.6204
35.817
33.222
32.0117
32.3301
34.3137
38.0958
43.7947
51.4889
61.1818
72.7547
85.8963
100
-300
-300
-300
-300
-300
-300
-300
-300
-300
-300
100
87.1155
74.7591
63.3941
53.3678
44.883
37.995
32.6327
28.6348
25.7921
23.889
22.7365
22.1964
22.1964
22.7365
23.889
25.7921
28.6348
32.6327
37.995
44.883
53.3678
63.3941
74.7591
87.1155
100
-300
-300
-300
-300
-300
-300
-300
-300
-300
-300
-300
-300
-300
-300
100
95.8631
91.8739
88.1549
84.7817
81.7651
79.0368
76.431
73.6498
70.1988
65.3155
58.2256
50.9041
44.4159
39.2212
35.5244
33.4355
33.0388
34.4211
37.6806
42.9208
50.2369
59.6952
71.3013
84.9157
100
-300
-300
-300
-300
-300
-300
-300
-300
-300
-300
100
87.1155
74.759
63.3939
53.3676
44.8828
37.9948
32.6325
28.6346
25.7919
23.8888
22.7362
22.1962
22.1962
22.7362
23.8888
25.7919
28.6346
32.6325
37.9948
44.8828
53.3676
63.3939
74.759
87.1155
100
-300
-300
-300
-300
-300
-300
-300
-300
-300
-300
-300
-300
-300
-300
100
97.8862
95.8469
93.9432
92.2111
90.6511
89.2162
87.7906
86.1341
83.7131
79.1521
68.2949
57.9938
49.4068
42.6865
37.8285
34.8176
33.6549
34.3657
37.0025
41.6436
48.3921
57.3845
68.8209
82.9938
100
-300
-300
-300
-300
-300
-300
-300
-300
-300
-300
100
87.1155
74.759
63.3939
53.3676
44.8827
37.9947
32.6325
28.6345
25.7918
23.8887
22.7361
22.1961
22.1961
22.7361
23.8887
25.7918
28.6345
32.6325
37.9947
44.8827
53.3676
63.3939
74.759
87.1155
100
-300
-300
-300
-300
-300
-300
-300
-300
-300
-300
-300
-300
-300
-300
100
100
100
100
100
100
100
100
100
100
100
78.8077
64.6228
53.9717
45.8547
39.9264
36.0374
34.1106
34.1106
36.0374
39.9264
45.8547
53.9717
64.6227
78.8077
100
100
100
100
100
100
100
100
100
100
100
100
87.1155
74.759
63.3939
53.3676
44.8827
37.9947
32.6324
28.6345
25.7918
23.8886
22.7361
22.1961
22.1961
22.7361
23.8886
25.7918
28.6345
32.6324
37.9947
44.8827
53.3676
63.3939
74.759
87.1155
100
-300
-300
-300
-300
-300
-300
-300
-300
-300
-300
-300
-300
-300
-300
-300
-300
-300
-300
-300
-300
-300
-300
-300
-300
100
82.9938
68.8208
57.3844
48.392
41.6435
37.0024
34.3656
33.6548
34.8174
37.8283
42.6864
49.4067
57.9937
68.2948
79.1519
83.7129
86.134
87.7905
89.2161
90.651
92.211
93.9431
95.8468
97.8862
100
100
87.1155
74.759
63.3939
53.3676
44.8827
37.9947
32.6324
28.6344
25.7918
23.8886
22.7361
22.1961
22.1961
22.7361
23.8886
25.7918
28.6344
32.6324
37.9947
44.8827
53.3676
63.3939
74.759
87.1155
100
-300
-300
-300
-300
-300
-300
-300
-300
-300
-300
-300
-300
-300
-300
-300
-300
-300
-300
-300
-300
-300
-300
-300
-300
100
84.9156
71.3011
59.695
50.2366
42.9205
37.6803
34.4208
33.0384
33.4351
35.524
39.2208
44.4155
50.9038
58.2252
65.3151
70.1984
73.6494
76.4307
79.0365
81.7648
84.7814
88.1548
91.8738
95.8631
100
100
87.1155
74.759
63.3939
53.3676
44.8827
37.9947
32.6324
28.6344
25.7918
23.8886
22.7361
22.196
22.196
22.7361
23.8886
25.7917
28.6344
32.6324
37.9947
44.8827
53.3676
63.3939
74.759
87.1155
100
-300
-300
-300
-300
-300
-300
-300
-300
-300
-300
-300
-300
-300
-300
-300
-300
-300
-300
-300
-300
-300
-300
-300
-300
100
85.8962
72.7543
61.1813
51.4883
43.7941
38.0951
34.3129
32.3293
32.0108
33.2211
35.816
39.6194
44.3736
49.6641
54.8566
59.2558
62.9855
66.4162
69.9029
73.713
78.0122
82.8644
88.2363
94.0092
100
100
87.1155
74.759
63.3939
53.3676
44.8827
37.9947
32.6324
28.6344
25.7917
23.8886
22.7361
22.196
22.196
22.7361
23.8886
25.7917
28.6344
32.6324
37.9947
44.8827
53.3675
63.3939
74.759
87.1155
100
-300
-300
-300
-300
-300
-300
-300
-300
-300
-300
-300
-300
-300
-300
-300
-300
-300
-300
-300
-300
-300
-300
-300
-300
100
86.4304
73.6077
62.1067
52.2928
44.3462
38.303
34.0973
31.6013
30.6562
31.0917
32.73
35.3744
38.7864
42.664
46.6568
50.4852
54.1799
57.9535
62.0641
66.7347
72.1101
78.235
85.0465
92.3817
100
100
87.1155
74.759
63.3939
53.3676
44.8827
37.9947
32.6324
28.6344
25.7917
23.8886
22.7361
22.196
22.196
22.7361
23.8886
25.7917
28.6344
32.6324
37.9947
44.8826
53.3675
63.3938
74.7589
87.1155
100
-300
-300
-300
-300
-300
-300
-300
-300
-300
-300
-300
-300
-300
-300
-300
-300
-300
-300
-300
-300
-300
-300
-300
-300
100
86.7314
74.108
62.6674
52.7852
44.6671
38.3688
33.8307
30.9174
29.4527
29.2457
30.1034
31.8319
34.2319
37.0988
40.2473
43.5725
47.1231
51.0639
55.6048
60.9355
67.1775
74.352
82.3651
91.012
100
100
87.1155
74.759
63.3939
53.3676
44.8827
37.9947
32.6324
28.6344
25.7917
23.8886
22.7361
22.196
22.196
22.7361
23.8886
25.7917
28.6344
32.6323
37.9946
44.8826
53.3675
63.3938
74.7589
87.1154
100
-300
-300
-300
-300
-300
-300
-300
-300
-300
-300
-300
-300
-300
-300
-300
-300
-300
-300
-300
-300
-300
-300
-300
-300
100
86.9028
74.3986
62.9977
53.0721
44.8353
38.3505
33.5594
30.3201
28.4451
27.7316
27.9819
29.0135
30.6644
32.8007
35.3346
38.2528
41.6386
45.6522
50.4847
56.3067
63.2211
71.2272
80.2029
89.9063
100
100
87.1155
74.759
63.3939
53.3676
44.8827
37.9947
32.6324
28.6344
25.7917
23.8886
22.7361
22.196
22.196
22.736
23.8885
25.7917
28.6343
32.6323
37.9945
44.8825
53.3674
63.3937
74.7588
87.1154
100
-300
-300
-300
-300
-300
-300
-300
-300
-300
-300
-300
-300
-300
-300
-300
-300
-300
-300
-300
-300
-300
-300
-300
-300
100
87
74.5647
63.1862
53.2303
44.9106
38.2918
33.3141
29.8302
27.645
26.5494
26.3459
26.8644
27.9723
29.5837
31.6707
34.2754
37.5121
41.5502
46.5773
52.7549
60.1726
68.8127
78.5291
89.0494
100
100
87.1155
74.759
63.3939
53.3676
44.8827
37.9947
32.6324
28.6344
25.7917
23.8886
22.7361
22.196
22.196
22.736
23.8885
25.7915
28.6342
32.6321
37.9943
44.8823
53.3671
63.3935
74.7587
87.1153
100
-300
-300
-300
-300
-300
-300
-300
-300
-300
-300
-300
-300
-300
-300
-300
-300
-300
-300
-300
-300
-300
-300
-300
-300
100
87.0542
74.6573
63.2899
53.3117
44.9346
38.2216
33.1107
29.4502
27.0399
25.6675
25.1375
25.2899
26.0136
27.2545
29.0226
31.3952
34.5109
38.5509
43.7057
50.1332
57.915
67.0201
77.2844
88.4117
100
100
87.1155
74.759
63.3939
53.3676
44.8827
37.9947
32.6324
28.6344
25.7917
23.8886
22.736
22.196
22.1959
22.7359
23.8883
25.7913
28.6338
32.6317
37.9938
44.8818
53.3666
63.393
74.7583
87.1151
100
-300
-300
-300
-300
-300
-300
-300
-300
-300
-300
-300
-300
-300
-300
-300
-300
-300
-300
-300
-300
-300
-300
-300
-300
100
87.0837
74.7073
63.3442
53.3499
44.9334
38.1562
32.9532
29.1698
26.6025
25.0373
24.2805
24.1801
24.6395
25.6253
27.1718
29.379
32.4032
36.4363
41.6732
48.2711
56.307
65.7408
76.3948
87.9555
100
100
87.1155
74.759
63.3939
53.3676
44.8827
37.9947
32.6324
28.6344
25.7917
23.8886
22.736
22.1959
22.1958
22.7356
23.8879
25.7908
28.6332
32.6308
37.9928
44.8807
53.3655
63.3921
74.7576
87.1147
100
-300
-300
-300
-300
-300
-300
-300
-300
-300
-300
-300
-300
-300
-300
-300
-300
-300
-300
-300
-300
-300
-300
-300
-300
100
87.0991
74.7329
63.3707
53.3649
44.9222
38.1023
32.8381
28.9724
26.2995
24.6048
23.6962
23.427
23.71
24.5254
25.9225
28.0162
30.975
34.999
40.2873
46.9981
55.2052
64.8627
75.7835
87.6418
100
100
87.1155
74.759
63.3939
53.3676
44.8827
37.9947
32.6324
28.6344
25.7917
23.8885
22.7359
22.1957
22.1954
22.7351
23.8872
25.7898
28.6318
32.6291
37.9908
44.8784
53.3633
63.3901
74.7561
87.1139
100
-300
-300
-300
-300
-300
-300
-300
-300
-300
-300
-300
-300
-300
-300
-300
-300
-300
-300
-300
-300
-300
-300
-300
-300
100
87.1064
74.7447
63.3817
53.3678
44.9082
38.0609
32.7574
28.8387
26.0978
24.3195
23.3128
22.9346
23.1038
23.8088
25.1085
27.1272
30.0414
34.0572
39.3771
46.16
54.4785
64.2827
75.3794
87.4343
100
100
87.1155
74.759
63.3939
53.3676
44.8827
37.9947
32.6324
28.6344
25.7916
23.8884
22.7356
22.1953
22.1948
22.7342
23.8858
25.7878
28.6291
32.6257
37.9868
44.874
53.3589
63.3861
74.7531
87.1123
100
-300
-300
-300
-300
-300
-300
-300
-300
-300
-300
-300
-300
-300
-300
-300
-300
-300
-300
-300
-300
-300
-300
-300
-300
100
87.1088
74.7481
63.3834
53.3638
44.8937
38.0297
32.7021
28.7509
25.9679
24.1377
23.0701
22.6241
22.7224
23.3583
24.5967
26.5677
29.453
33.4624
38.8011
45.6287
54.0171
63.9139
75.1222
87.3022
100
100
87.1155
74.759
63.3939
53.3675
44.8827
37.9946
32.6323
28.6343
25.7915
23.8881
22.7352
22.1946
22.1937
22.7324
23.8831
25.784
28.624
32.6192
37.979
44.8655
53.3502
63.3783
74.7471
87.1091
100
-300
-300
-300
-300
-300
-300
-300
-300
-300
-300
-300
-300
-300
-300
-300
-300
-300
-300
-300
-300
-300
-300
-300
-300
100
87.1076
74.7451
63.3778
53.3541
44.8776
38.0042
32.6631
28.6932
25.8858
24.025
22.9213
22.4349
22.4906
23.085
24.2862
26.228
29.0952
33.1002
38.4497
45.3041
53.7348
63.6881
74.9646
87.2212
100
100
87.1155
74.759
63.3939
53.3675
44.8827
37.9946
32.6323
28.6342
25.7913
23.8877
22.7345
22.1934
22.1916
22.7292
23.8783
25.777
28.6146
32.6072
37.9646
44.8495
53.3339
63.3635
74.7358
87.1029
100
-300
-300
-300
-300
-300
-300
-300
-300
-300
-300
-300
-300
-300
-300
-300
-300
-300
-300
-300
-300
-300
-300
-300
-300
100
87.1023
74.7351
63.3637
53.3366
44.8566
37.9788
32.6314
28.6525
25.8326
23.9556
22.8319
22.3228
22.3543
22.9246
24.1042
26.0289
28.8853
32.8874
38.2431
45.1129
53.5684
63.5549
74.8715
87.1734
100
100
87.1155
74.759
63.3939
53.3675
44.8826
37.9946
32.6322
28.634
25.7909
23.887
22.7333
22.1912
22.1881
22.7235
23.8697
25.7647
28.5978
32.5856
37.9386
44.8203
53.3041
63.3363
74.7149
87.0915
100
-300
-300
-300
-300
-300
-300
-300
-300
-300
-300
-300
-300
-300
-300
-300
-300
-300
-300
-300
-300
-300
-300
-300
-300
100
87.0913
74.7147
63.3366
53.3057
44.8243
37.9463
32.5986
28.6179
25.7941
23.9105
22.7776
22.2571
22.2759
22.8333
24.001
25.9161
28.7664
32.7669
38.1258
45.0044
53.4738
63.4791
74.8186
87.1461
100
100
87.1155
74.759
63.3939
53.3675
44.8826
37.9945
32.632
28.6337
25.7903
23.8859
22.7312
22.1876
22.1821
22.714
23.8552
25.7437
28.569
32.5482
37.8931
44.7689
53.251
63.2874
74.6771
87.0708
100
-300
-300
-300
-300
-300
-300
-300
-300
-300
-300
-300
-300
-300
-300
-300
-300
-300
-300
-300
-300
-300
-300
-300
-300
100
87.0707
74.6771
63.2877
53.2519
44.771
37.8971
32.5548
28.5793
25.7587
23.876
22.7415
22.2172
22.2307
22.7822
23.944
25.8541
28.7013
32.7008
38.0616
44.9449
53.4219
63.4375
74.7895
87.1312
100
100
87.1155
74.759
63.3938
53.3675
44.8825
37.9944
32.6318
28.6332
25.7893
23.8841
22.7279
22.1818
22.1724
22.6985
23.8315
25.7091
28.5209
32.4853
37.8158
44.6807
53.1589
63.2019
74.6104
87.0341
100
-300
-300
-300
-300
-300
-300
-300
-300
-300
-300
-300
-300
-300
-300
-300
-300
-300
-300
-300
-300
-300
-300
-300
-300
100
87.034
74.6104
63.2021
53.1594
44.6818
37.8178
32.4886
28.5261
25.7165
23.8417
22.7121
22.1897
22.2031
22.753
23.9127
25.8209
28.6666
32.6658
38.0276
44.9134
53.3945
63.4155
74.7741
87.1233
100
100
87.1155
74.7589
63.3938
53.3675
44.8825
37.9942
32.6314
28.6324
25.7878
23.8813
22.7228
22.1729
22.1574
22.6742
23.7941
25.654
28.4439
32.3832
37.6889
44.5339
53.0036
63.0557
74.495
86.97
100
-300
-300
-300
-300
-300
-300
-300
-300
-300
-300
-300
-300
-300
-300
-300
-300
-300
-300
-300
-300
-300
-300
-300
-300
100
86.97
74.495
63.0558
53.0038
44.5344
37.6898
32.3848
28.4463
25.6576
23.799
22.6807
22.1657
22.1831
22.7348
23.895
25.8029
28.6484
32.6477
38.0101
44.8973
53.3804
63.4042
74.7662
87.1192
100
100
87.1155
74.7589
63.3938
53.3674
44.8823
37.994
32.6309
28.6313
25.7857
23.8772
22.7153
22.1597
22.135
22.6378
23.7374
25.5697
28.3245
32.2232
37.4869
44.2965
52.7481
62.8112
74.2989
86.8598
100
-300
-300
-300
-300
-300
-300
-300
-300
-300
-300
-300
-300
-300
-300
-300
-300
-300
-300
-300
-300
-300
-300
-300
-300
100
86.8598
74.2989
62.8113
52.7483
44.2968
37.4873
32.2239
28.3257
25.5714
23.7397
22.6408
22.1388
22.1644
22.7208
23.8835
25.7927
28.6388
32.6384
38.0013
44.8892
53.3734
63.3986
74.7623
87.1172
100
100
87.1155
74.7589
63.3938
53.3673
44.8822
37.9936
32.6301
28.6298
25.7827
23.8714
22.7047
22.1409
22.1029
22.5853
23.6549
25.4456
28.1466
31.981
37.1761
43.9241
52.3386
62.4101
73.9701
86.6718
100
-300
-300
-300
-300
-300
-300
-300
-300
-300
-300
-300
-300
-300
-300
-300
-300
-300
-300
-300
-300
-300
-300
-300
-300
100
86.6718
73.9701
62.4101
52.3387
43.9243
37.1763
31.9814
28.1471
25.4464
23.6559
22.5867
22.1047
22.143
22.7072
23.8743
25.7858
28.6331
32.6335
37.9969
44.8853
53.37
63.396
74.7605
87.1162
100
100
87.1155
74.7589
63.3937
53.3672
44.882
37.9931
32.6291
28.6278
25.7786
23.8637
22.6903
22.1153
22.059
22.5127
23.5397
25.2704
27.8918
31.6284
36.7143
43.3577
51.6984
61.7634
73.4227
86.3499
100
-300
-300
-300
-300
-300
-300
-300
-300
-300
-300
-300
-300
-300
-300
-300
-300
-300
-300
-300
-300
-300
-300
-300
-300
100
86.3499
73.4227
61.7634
51.6984
43.3577
36.7144
31.6285
27.8921
25.2707
23.5401
22.5133
22.0598
22.1162
22.6914
23.8649
25.78
28.6292
32.6306
37.9946
44.8833
53.3684
63.3947
74.7596
87.1158
100
100
87.1154
74.7589
63.3937
53.3671
44.8817
37.9925
32.6279
28.6252
25.7735
23.8537
22.6718
22.082
22.0014
22.4168
23.3858
25.0335
27.5421
31.1353
36.0538
42.5244
50.7235
60.7371
72.5123
85.7893
100
-300
-300
-300
-300
-300
-300
-300
-300
-300
-300
-300
-300
-300
-300
-300
-300
-300
-300
-300
-300
-300
-300
-300
-300
100
85.7893
72.5123
60.7371
50.7235
42.5244
36.0539
31.1354
27.5422
25.0336
23.386
22.417
22.0017
22.0824
22.6722
23.8542
25.774
28.6258
32.6285
37.9932
44.8823
53.3676
63.3941
74.7592
87.1156
100
100
87.1154
74.7589
63.3936
53.367
44.8814
37.9918
32.6264
28.622
25.7671
23.8414
22.6489
22.0407
21.9293
22.2956
23.1897
24.7276
27.0837
30.4763
35.1486
41.3446
49.2835
59.1354
70.9892
84.773
100
-300
-300
-300
-300
-300
-300
-300
-300
-300
-300
-300
-300
-300
-300
-300
-300
-300
-300
-300
-300
-300
-300
-300
-300
100
84.773
70.9892
59.1354
49.2835
41.3446
35.1486
30.4763
27.0837
24.7277
23.1897
22.2957
21.9295
22.0408
22.6491
23.8416
25.7674
28.6223
32.6266
37.9921
44.8816
53.3672
63.3938
74.759
87.1155
100
100
87.1154
74.7588
63.3936
53.3668
44.881
37.991
32.6246
28.6183
25.7597
23.827
22.6219
21.9916
21.8434
22.1501
22.9517
24.3521
26.5123
29.6386
33.9678
39.7501
47.2386
56.6938
68.4183
82.7942
100
-300
-300
-300
-300
-300
-300
-300
-300
-300
-300
-300
-300
-300
-300
-300
-300
-300
-300
-300
-300
-300
-300
-300
-300
100
82.7942
68.4183
56.6938
47.2386
39.7502
33.9678
29.6386
26.5123
24.3521
22.9517
22.1501
21.8435
21.9917
22.6219
23.8271
25.7598
28.6184
32.6247
37.9911
44.8811
53.3669
63.3936
74.7589
87.1155
100
100
87.1154
74.7588
63.3935
53.3667
44.8806
37.9901
32.6227
28.6143
25.7515
23.811
22.5916
21.9364
21.7459
21.9838
22.6775
23.915
25.8383
28.633
32.5156
37.7204
44.4956
53.1317
64.0912
78.4915
100
100
100
100
100
100
100
100
100
100
100
100
100
100
100
100
100
100
100
100
100
100
100
100
100
100
78.4915
64.0912
53.1317
44.4956
37.7204
32.5156
28.633
25.8383
23.915
22.6775
21.9838
21.7459
21.9364
22.5916
23.811
25.7515
28.6143
32.6227
37.9902
44.8807
53.3667
63.3935
74.7588
87.1154
100
100
87.1154
74.7588
63.3935
53.3665
44.8803
37.9892
32.6206
28.61
25.7428
23.7939
22.5592
21.8771
21.6408
21.8036
22.3784
23.4342
25.0892
27.5003
30.8499
35.3295
41.124
48.3979
57.2695
67.6702
78.4915
82.7942
84.773
85.7893
86.3499
86.6718
86.8598
86.9699
87.0339
87.0705
87.0908
87.1014
87.1059
87.1059
87.1014
87.0908
87.0705
87.0339
86.9699
86.8598
86.6718
86.3499
85.7893
84.773
82.7942
78.4915
67.6702
57.2695
48.3979
41.124
35.3295
30.8499
27.5003
25.0892
23.4342
22.3784
21.8036
21.6408
21.8771
22.5592
23.7939
25.7428
28.61
32.6207
37.9892
44.8803
53.3665
63.3935
74.7588
87.1154
100
100
87.1155
74.7589
63.3935
53.3665
44.88
37.9884
32.6187
28.6058
25.7341
23.7767
22.5264
21.8167
21.5334
21.6186
22.0698
22.9354
24.307
26.3086
29.0817
32.765
37.4688
43.2353
49.9681
57.2695
64.0912
68.4183
70.9892
72.5123
73.4227
73.9701
74.2989
74.4949
74.6101
74.6765
74.7135
74.733
74.7412
74.7412
74.733
74.7135
74.6765
74.6101
74.4949
74.2989
73.9701
73.4227
72.5123
70.9892
68.4183
64.0912
57.2695
49.9681
43.2353
37.4688
32.765
29.0817
26.3086
24.307
22.9354
22.0698
21.6186
21.5334
21.8167
22.5264
23.7767
25.7341
28.6058
32.6187
37.9884
44.88
53.3665
63.3935
74.7589
87.1155
100
100
87.1155
74.759
63.3937
53.3666
44.88
37.9879
32.6172
28.6021
25.7261
23.7605
22.495
21.7585
21.4293
21.4386
21.7687
22.4473
23.5396
25.1368
27.3408
30.2431
33.8974
38.2801
43.2353
48.3979
53.1317
56.6938
59.1354
60.7371
61.7634
62.4101
62.8112
63.0556
63.2016
63.2866
63.3345
63.3597
63.3705
63.3705
63.3597
63.3345
63.2866
63.2016
63.0556
62.8112
62.4101
61.7634
60.7371
59.1354
56.6938
53.1317
48.3979
43.2353
38.2801
33.8974
30.2431
27.3408
25.1368
23.5396
22.4473
21.7687
21.4386
21.4293
21.7585
22.495
23.7605
25.7261
28.6021
32.6172
37.9879
44.88
53.3666
63.3937
74.759
87.1155
100
100
87.1157
74.7594
63.3942
53.3672
44.8805
37.9881
32.6164
28.5994
25.7194
23.7462
22.4669
21.7056
21.334
21.2731
21.491
21.9965
22.8307
24.0555
25.7395
27.9389
30.6733
33.8974
37.4688
41.124
44.4956
47.2386
49.2835
50.7235
51.6984
52.3386
52.7481
53.0034
53.1585
53.25
53.3021
53.3297
53.3415
53.3415
53.3297
53.3021
53.25
53.1585
53.0034
52.7481
52.3386
51.6984
50.7235
49.2835
47.2386
44.4956
41.124
37.4688
33.8974
30.6733
27.9389
25.7395
24.0555
22.8307
21.9965
21.491
21.2731
21.334
21.7056
22.4669
23.7462
25.7194
28.5994
32.6164
37.9881
44.8805
53.3672
63.3942
74.7594
87.1157
100
100
87.1162
74.7603
63.3955
53.3688
44.8822
37.9896
32.6173
28.5986
25.7152
23.7354
22.4439
21.6609
21.252
21.1295
21.2492
21.6033
22.2126
23.1151
24.3539
25.9608
27.9389
30.2431
32.765
35.3295
37.7204
39.7501
41.3446
42.5244
43.3577
43.9241
44.2964
44.5337
44.6803
44.7679
44.8183
44.8452
44.8568
44.8568
44.8452
44.8183
44.7679
44.6803
44.5337
44.2964
43.9241
43.3577
42.5244
41.3446
39.7501
37.7204
35.3295
32.765
30.2431
27.9389
25.9608
24.3539
23.1151
22.2126
21.6033
21.2492
21.1295
21.252
21.6609
22.4439
23.7354
25.7152
28.5986
32.6173
37.9896
44.8822
53.3688
63.3955
74.7603
87.1162
100
100
87.1172
74.7623
63.3983
53.3724
44.8862
37.9939
32.6212
28.6014
25.7153
23.7301
22.4284
21.6273
21.1873
21.0135
21.0513
21.28
21.7037
22.3423
23.2202
24.3539
25.7395
27.3408
29.0817
30.8499
32.5156
33.9678
35.1486
36.0538
36.7143
37.176
37.4868
37.6887
37.8154
37.8922
37.9368
37.9608
37.9712
37.9712
37.9608
37.9368
37.8922
37.8154
37.6887
37.4868
37.176
36.7143
36.0538
35.1486
33.9678
32.5156
30.8499
29.0817
27.3408
25.7395
24.3539
23.2202
22.3423
21.7037
21.28
21.0513
21.0135
21.1873
21.6273
22.4284
23.7301
25.7153
28.6014
32.6212
37.9939
44.8862
53.3724
63.3983
74.7623
87.1172
100
100
87.1193
74.7664
63.4044
53.38
44.8951
38.0036
32.6313
28.6109
25.7229
23.7336
22.424
21.6085
21.1439
20.9293
20.9023
21.0319
21.3101
21.7431
22.3423
23.1151
24.0555
25.1368
26.3086
27.5003
28.633
29.6386
30.4763
31.1353
31.6284
31.981
32.2231