# vtk DataFile Version 2.0
LBE two cylinders
ASCII
DATASET STRUCTURED_POINTS
DIMENSIONS 76 76 1
ASPECT_RATIO 1 1 1
ORIGIN 0 0 0
POINT_DATA 5776
SCALARS temp double 1
LOOKUP_TABLE default
100
100
100
100
100
100
100
100
100
100
100
100
100
100
100
100
100
100
100
100
100
100
100
100
100
100
-300
-300
-300
-300
-300
-300
-300
-300
-300
-300
-300
-300
-300
-300
100
100
100
100
100
100
100
100
100
100
100
100
100
100
100
100
100
100
100
100
100
100
100
100
100
100
-300
-300
-300
-300
-300
-300
-300
-300
-300
-300
100
97.2386
94.627
92.2907
90.313
88.7284
87.5259
86.6612
86.0719
85.6917
85.4611
85.3334
85.2773
85.2773
85.3334
85.4611
85.6917
86.0719
86.6612
87.5259
88.7284
90.313
92.2907
94.627
97.2386
100
-300
-300
-300
-300
-300
-300
-300
-300
-300
-300
-300
-300
-300
-300
100
97.2386
94.627
92.2907
90.313
88.7284
87.5259
86.6612
86.0719
85.6917
85.4611
85.3334
85.2773
85.2773
85.3334
85.4611
85.6917
86.0719
86.6612
87.5259
88.7284
90.313
92.2907
94.627
97.2386
100
-300
-300
-300
-300
-300
-300
-300
-300
-300
-300
100
94.627
89.5455
84.9995
81.1516
78.0684
75.7288
74.0465
72.9
72.1604
71.7117
71.4633
71.3542
71.3542
71.4633
71.7117
72.1604
72.9
74.0465
75.7288
78.0684
81.1516
84.9995
89.5455
94.627
100
-300
-300
-300
-300
-300
-300
-300
-300
-300
-300
-300
-300
-300
-300
100
94.627
89.5455
84.9995
81.1516
78.0685
75.7289
74.0465
72.9
72.1604
71.7117
71.4633
71.3542
71.3542
71.4633
71.7117
72.1604
72.9
74.0465
75.7288
78.0684
81.1516
84.9995
89.5455
94.627
100
-300
-300
-300
-300
-300
-300
-300
-300
-300
-300
100
92.2907
84.9995
78.477
72.956
68.5326
65.176
62.7626
61.1179
60.0569
59.4133
59.057
58.9005
58.9005
59.057
59.4133
60.0569
61.1179
62.7626
65.176
68.5326
72.956
78.477
84.9995
92.2907
100
-300
-300
-300
-300
-300
-300
-300
-300
-300
-300
-300
-300
-300
-300
100
92.2907
84.9995
78.477
72.9561
68.5326
65.1761
62.7626
61.1179
60.0569
59.4134
59.0571
58.9006
58.9006
59.057
59.4134
60.0569
61.1179
62.7626
65.176
68.5326
72.956
78.477
84.9995
92.2907
100
-300
-300
-300
-300
-300
-300
-300
-300
-300
-300
100
90.313
81.1515
72.956
66.0192
60.4616
56.2446
53.2126
51.1466
49.8139
49.0056
48.5581
48.3615
48.3615
48.5581
49.0056
49.8139
51.1466
53.2126
56.2446
60.4616
66.0192
72.956
81.1515
90.313
100
-300
-300
-300
-300
-300
-300
-300
-300
-300
-300
-300
-300
-300
-300
100
90.313
81.1516
72.9561
66.0193
60.4617
56.2447
53.2127
51.1467
49.8139
49.0057
48.5581
48.3616
48.3616
48.5581
49.0056
49.8139
51.1466
53.2126
56.2446
60.4616
66.0192
72.956
81.1515
90.313
100
-300
-300
-300
-300
-300
-300
-300
-300
-300
-300
100
88.7283
78.0683
68.5324
60.4614
53.9953
49.0893
45.5622
43.1589
41.6088
40.6687
40.1483
39.9197
39.9197
40.1483
40.6687
41.6088
43.1589
45.5622
49.0893
53.9953
60.4614
68.5324
78.0683
88.7283
100
-300
-300
-300
-300
-300
-300
-300
-300
-300
-300
-300
-300
-300
-300
100
88.7284
78.0684
68.5326
60.4617
53.9956
49.0896
45.5625
43.1592
41.609
40.6689
40.1485
39.9199
39.9199
40.1484
40.6688
41.6088
43.1589
45.5622
49.0893
53.9953
60.4614
68.5324
78.0683
88.7283
100
-300
-300
-300
-300
-300
-300
-300
-300
-300
-300
100
87.5257
75.7284
65.1755
56.2439
49.0888
43.6602
39.7577
37.0988
35.384
34.3441
33.7685
33.5157
33.5157
33.7685
34.3441
35.384
37.0988
39.7577
43.6602
49.0888
56.2439
65.1755
75.7284
87.5257
100
-300
-300
-300
-300
-300
-300
-300
-300
-300
-300
-300
-300
-300
-300
100
87.5259
75.7288
65.176
56.2446
49.0896
43.6611
39.7586
37.0997
35.3847
34.3448
33.7691
33.5162
33.5161
33.7687
34.3443
35.3841
37.0989
39.7578
43.6603
49.0888
56.2439
65.1755
75.7284
87.5257
100
-300
-300
-300
-300
-300
-300
-300
-300
-300
-300
100
86.6606
74.0454
62.761
53.2108
45.5602
39.7562
35.584
32.7416
30.9085
29.797
29.1818
28.9117
28.9117
29.1818
29.797
30.9085
32.7416
35.584
39.7562
45.5602
53.2108
62.761
74.0454
86.6606
100
-300
-300
-300
-300
-300
-300
-300
-300
-300
-300
-300
-300
-300
-300
100
86.6612
74.0465
62.7626
53.2126
45.5624
39.7584
35.5863
32.7437
30.9105
29.7988
29.1833
28.9129
28.9126
29.1825
29.7975
30.9088
32.7418
35.5841
39.7563
45.5603
53.2108
62.761
74.0454
86.6606
100
-300
-300
-300
-300
-300
-300
-300
-300
-300
-300
100
86.0705
72.8972
61.1139
51.1417
43.1534
37.0935
32.7375
29.7701
27.8565
26.6964
26.0542
25.7723
25.7723
26.0542
26.6964
27.8565
29.7701
32.7375
37.0935
43.1534
51.1417
61.1139
72.8972
86.0705
100
-300
-300
-300
-300
-300
-300
-300
-300
-300
-300
-300
-300
-300
-300
100
86.0719
72.8999
61.1177
51.1464
43.1588
37.0991
32.7432
29.7756
27.8616
26.7008
26.058
25.7753
25.7746
26.0559
26.6976
27.8573
29.7706
32.7378
37.0936
43.1535
51.1417
61.1139
72.8972
86.0704
100
-300
-300
-300
-300
-300
-300
-300
-300
-300
-300
100
85.6882
72.1536
60.0472
49.8018
41.595
35.3694
30.8947
27.8465
25.8809
24.6893
24.0297
23.7402
23.7402
24.0297
24.6893
25.8809
27.8465
30.8947
35.3694
41.595
49.8018
60.0472
72.1536
85.6882
100
-300
-300
-300
-300
-300
-300
-300
-300
-300
-300
-300
-300
-300
-300
100
85.6916
72.1602
60.0565
49.8133
41.6079
35.3832
30.9085
27.8598
25.8932
24.7001
24.0389
23.7476
23.746
24.034
24.6923
25.8829
27.8477
30.8954
35.3698
41.5951
49.8018
60.0471
72.1535
85.6882
100
-300
-300
-300
-300
-300
-300
-300
-300
-300
-300
100
85.4529
71.6959
59.3908
48.9773
40.6361
34.3088
29.761
26.6632
24.6658
23.4548
22.7847
22.4905
22.4905
22.7847
23.4548
24.6658
26.6632
29.761
34.3088
40.6361
48.9773
59.3908
71.6959
85.4529
100
-300
-300
-300
-300
-300
-300
-300
-300
-300
-300
-300
-300
-300
-300
100
85.4609
71.7112
59.4124
49.004
40.6663
34.3409
29.7934
26.6944
24.6945
23.4803
22.8062
22.5079
22.504
22.7946
23.4618
24.6704
26.6661
29.7627
34.3096
40.6364
48.9773
59.3906
71.6958
85.4528
100
-300
-300
-300
-300
-300
-300
-300
-300
-300
-300
100
85.3152
71.428
59.0065
48.4948
40.075
33.6881
29.0978
25.971
23.9549
22.7328
22.0564
21.7595
21.7595
22.0564
22.7328
23.9549
25.971
29.0978
33.6881
40.075
48.4948
59.0065
71.428
85.3152
100
-300
-300
-300
-300
-300
-300
-300
-300
-300
-300
-300
-300
-300
-300
100
85.3329
71.4622
59.055
48.5546
40.1426
33.76
29.1703
26.041
24.0196
22.79
22.1049
21.7988
21.7899
22.0788
22.7485
23.9653
25.9774
29.1014
33.6899
40.0755
48.4946
59.0061
71.4276
85.315
100
-300
-300
-300
-300
-300
-300
-300
-300
-300
-300
100
85.2385
71.2788
58.7924
48.2259
39.7623
33.3424
28.7283
25.5854
23.559
22.3306
21.6508
21.3524
21.3524
21.6508
22.3306
23.559
25.5854
28.7283
33.3424
39.7623
48.2259
58.7924
71.2788
85.2385
100
-300
-300
-300
-300
-300
-300
-300
-300
-300
-300
-300
-300
-300
-300
100
85.2763
71.3519
58.8963
48.3542
39.9076
33.4969
28.8844
25.7362
23.6985
22.4542
21.7556
21.4373
21.4181
21.6993
22.3646
23.5815
25.5993
28.736
33.346
39.7633
48.2254
58.7913
71.2776
85.2378
100
-300
-300
-300
-300
-300
-300
-300
-300
-300
-300
100
85.1977
71.1995
58.6787
48.0831
39.5963
33.1588
28.5322
25.3808
23.3489
22.1172
21.4355
21.1363
21.1363
21.4355
22.1172
23.3489
25.3808
28.5322
33.1588
39.5963
48.0831
58.6787
71.1995
85.1977
100
-300
-300
-300
-300
-300
-300
-300
-300
-300
-300
-300
-300
-300
-300
100
85.2754
71.3498
58.8922
48.3469
39.8953
33.4773
28.8544
25.6923
23.6374
22.3731
21.6528
21.3125
21.2727
21.536
22.1874
23.3952
25.4092
28.5479
33.1659
39.5979
48.0815
58.6758
71.1966
85.196
100
-300
-300
-300
-300
-300
-300
-300
-300
-300
-300
100
85.177
71.1593
58.6211
48.0108
39.5122
33.0658
28.4328
25.2771
23.2425
22.0091
21.3266
21.0269
21.0269
21.3266
22.0091
23.2425
25.2771
28.4328
33.0658
39.5122
48.0108
58.6211
71.1593
85.177
100
-300
-300
-300
-300
-300
-300
-300
-300
-300
-300
-300
-300
-300
-300
100
85.33
71.4552
59.0415
48.5306
40.1021
33.6948
29.0702
25.8944
23.8149
22.5175
21.7584
21.3773
21.298
21.5261
22.1484
23.3342
25.3331
28.4633
33.079
39.5141
48.0063
58.614
71.1526
85.1731
100
-300
-300
-300
-300
-300
-300
-300
-300
-300
-300
100
85.167
71.1398
58.5932
47.9758
39.4715
33.0209
28.3847
25.227
23.191
21.9568
21.2738
20.974
20.974
21.2738
21.9568
23.191
25.227
28.3847
33.0209
39.4715
47.9758
58.5932
71.1398
85.167
100
-300
-300
-300
-300
-300
-300
-300
-300
-300
-300
-300
-300
-300
-300
100
85.4552
71.6976
59.3861
48.9569
40.5863
34.2112
29.593
26.3992
24.2799
22.9251
22.097
21.642
21.4905
21.6536
22.2214
23.3645
25.3321
28.441
33.0435
39.4724
47.9642
58.5767
71.1247
85.1582
100
-300
-300
-300
-300
-300
-300
-300
-300
-300
-300
100
85.1624
71.1308
58.5803
47.9596
39.4527
33
28.3625
25.2038
23.1672
21.9327
21.2495
20.9496
20.9496
21.2495
21.9327
23.1672
25.2038
28.3625
33
39.4527
47.9596
58.5803
71.1308
85.1624
100
-300
-300
-300
-300
-300
-300
-300
-300
-300
-300
-300
-300
-300
-300
100
85.682
72.1372
60.0117
49.7325
41.4698
35.1575
30.5569
27.3371
25.1527
23.7008
22.7536
22.1699
21.8921
21.9413
22.4135
23.4811
25.3924
28.4611
33.0364
39.4484
47.9318
58.5436
71.0979
85.1432
100
-300
-300
-300
-300
-300
-300
-300
-300
-300
-300
100
85.1604
71.1268
58.5746
47.9524
39.4444
32.9908
28.3527
25.1935
23.1567
21.922
21.2387
20.9387
20.9387
21.2387
21.922
23.1567
25.1935
28.3527
32.9908
39.4444
47.9524
58.5746
71.1268
85.1604
100
-300
-300
-300
-300
-300
-300
-300
-300
-300
-300
-300
-300
-300
-300
100
86.057
72.8641
61.0476
51.0188
42.9384
36.7355
32.1703
28.9142
26.6274
25.0176
23.8736
23.0751
22.5863
22.4449
22.7574
23.6991
25.5159
28.5164
33.044
39.4244
47.8899
58.4965
71.0576
85.12
100
-300
-300
-300
-300
-300
-300
-300
-300
-300
-300
100
85.1595
71.1251
58.5721
47.9494
39.4408
32.9869
28.3485
25.1892
23.1522
21.9174
21.2341
20.9341
20.9341
21.2341
21.9174
23.1522
25.1892
28.3485
32.9869
39.4408
47.9494
58.5721
71.1251
85.1595
100
-300
-300
-300
-300
-300
-300
-300
-300
-300
-300
-300
-300
-300
-300
100
86.6398
73.9947
62.6602
53.0249
45.2345
39.2108
34.7115
31.4094
28.9705
27.1162
25.6605
24.5187
23.6917
23.2463
23.305
24.0472
25.7141
28.6054
33.0552
39.3823
47.816
58.4121
70.9845
85.0775
100
-300
-300
-300
-300
-300
-300
-300
-300
-300
-300
100
85.1591
71.1244
58.5712
47.9481
39.4394
32.9853
28.3468
25.1874
23.1504
21.9156
21.2323
20.9323
20.9323
21.2323
21.9156
23.1504
25.1874
28.3468
32.9853
39.4394
47.9481
58.5712
71.1244
85.1591
100
-300
-300
-300
-300
-300
-300
-300
-300
-300
-300
-300
-300
-300
-300
100
87.4974
75.6594
65.0378
55.9884
48.6363
42.8927
38.5105
35.1607
32.5113
30.297
28.3675
26.6977
25.3514
24.4422
24.1169
24.559
26.0006
28.7261
33.0553
39.2972
47.6776
58.2551
70.8474
84.997
100
-300
-300
-300
-300
-300
-300
-300
-300
-300
-300
100
85.159
71.1242
58.5708
47.9476
39.4388
32.9847
28.3462
25.1867
23.1497
21.9149
21.2315
20.9316
20.9316
21.2315
21.9149
23.1497
25.1867
28.3462
32.9847
39.4388
47.9476
58.5708
71.1242
85.159
100
-300
-300
-300
-300
-300
-300
-300
-300
-300
-300
-300
-300
-300
-300
100
88.6936
77.9832
68.3613
60.1402
53.4188
48.0946
43.9131
40.536
37.6209
34.9043
32.2789
29.8241
27.7109
26.1261
25.2486
25.2628
26.3833
28.8701
33.0208
39.1308
47.4243
57.9685
70.5939
84.8462
100
-300
-300
-300
-300
-300
-300
-300
-300
-300
-300
100
85.159
71.1241
58.5706
47.9474
39.4386
32.9845
28.3459
25.1864
23.1494
21.9146
21.2313
20.9313
20.9313
21.2313
21.9146
23.1494
25.1864
28.3459
32.9845
39.4386
47.9474
58.5706
71.1241
85.159
100
-300
-300
-300
-300
-300
-300
-300
-300
-300
-300
-300
-300
-300
-300
100
90.2747
81.0571
72.7643
65.6549
59.7971
55.0752
51.2252
47.8894
44.686
41.3099
37.6836
34.0888
30.8834
28.3595
26.7298
26.1683
26.8568
29.0174
32.9151
38.8272
46.9794
57.4607
70.134
84.5657
100
-300
-300
-300
-300
-300
-300
-300
-300
-300
-300
100
85.1589
71.124
58.5706
47.9474
39.4385
32.9844
28.3458
25.1864
23.1493
21.9145
21.2312
20.9312
20.9312
21.2312
21.9145
23.1493
25.1864
28.3458
32.9844
39.4385
47.9474
58.5706
71.124
85.1589
100
-300
-300
-300
-300
-300
-300
-300
-300
-300
-300
-300
-300
-300
-300
100
92.2536
84.9075
78.2885
72.5933
67.8596
63.9649
60.6428
57.5077
54.0891
49.9223
44.841
39.605
34.8971
31.134
28.5406
27.2524
27.3951
29.1336
32.6878
38.3107
46.234
56.5889
69.3123
84.0417
100
-300
-300
-300
-300
-300
-300
-300
-300
-300
-300
100
85.1589
71.124
58.5706
47.9474
39.4385
32.9844
28.3458
25.1863
23.1493
21.9145
21.2311
20.9311
20.9311
21.2311
21.9145
23.1493
25.1863
28.3458
32.9844
39.4385
47.9474
58.5706
71.124
85.1589
100
-300
-300
-300
-300
-300
-300
-300
-300
-300
-300
-300
-300
-300
-300
100
94.5972
89.4712
84.8461
80.8528
77.505
74.691
72.169
69.5456
66.218
61.304
53.9325
46.3129
39.6216
34.3282
30.5896
28.4507
27.9494
29.1729
32.2807
37.4921
45.0463
55.141
67.8572
83.0381
100
-300
-300
-300
-300
-300
-300
-300
-300
-300
-300
100
85.1589
71.124
58.5706
47.9474
39.4385
32.9844
28.3458
25.1863
23.1493
21.9145
21.2311
20.9311
20.9311
21.2311
21.9145
23.1493
25.1863
28.3458
32.9844
39.4385
47.9474
58.5706
71.124
85.1589
100
-300
-300
-300
-300
-300
-300
-300
-300
-300
-300
-300
-300
-300
-300
100
97.222
94.5853
92.2039
90.1425
88.4027
86.9138
85.5177
83.9146
81.4839
76.6802
64.8905
53.7901
44.675
37.6751
32.7068
29.6592
28.4551
29.0882
31.6431
36.2901
43.2624
52.8299
65.2963
81.0033
100
-300
-300
-300
-300
-300
-300
-300
-300
-300
-300
100
85.1589
71.124
58.5706
47.9473
39.4385
32.9844
28.3458
25.1863
23.1493
21.9145
21.2311
20.9311
20.9311
21.2311
21.9145
23.1493
25.1863
28.3458
32.9844
39.4385
47.9473
58.5706
71.124
85.1589
100
-300
-300
-300
-300
-300
-300
-300
-300
-300
-300
-300
-300
-300
-300
100
100
100
100
100
100
100
100
100
100
100
76.4627
60.8663
49.3549
40.7794
34.6716
30.7563
28.8482
28.8482
30.7563
34.6716
40.7794
49.3549
60.8663
76.4627
100
100
100
100
100
100
100
100
100
100
100
100
85.1589
71.124
58.5706
47.9473
39.4385
32.9844
28.3458
25.1863
23.1493
21.9145
21.2311
20.9311
20.9311
21.2311
21.9145
23.1493
25.1863
28.3458
32.9844
39.4385
47.9473
58.5706
71.124
85.1589
100
-300
-300
-300
-300
-300
-300
-300
-300
-300
-300
-300
-300
-300
-300
-300
-300
-300
-300
-300
-300
-300
-300
-300
-300
100
81.0033
65.2963
52.8299
43.2624
36.2901
31.643
29.0882
28.4551
29.6592
32.7068
37.6751
44.675
53.7901
64.8905
76.6802
81.4839
83.9146
85.5177
86.9138
88.4027
90.1425
92.2039
94.5853
97.222
100
100
85.1589
71.124
58.5706
47.9473
39.4385
32.9844
28.3458
25.1863
23.1493
21.9145
21.2311
20.9311
20.9311
21.2311
21.9145
23.1493
25.1863
28.3458
32.9844
39.4385
47.9473
58.5706
71.124
85.1589
100
-300
-300
-300
-300
-300
-300
-300
-300
-300
-300
-300
-300
-300
-300
-300
-300
-300
-300
-300
-300
-300
-300
-300
-300
100
83.0381
67.8572
55.141
45.0463
37.4921
32.2807
29.1729
27.9494
28.4507
30.5896
34.3282
39.6216
46.3129
53.9325
61.304
66.218
69.5455
72.1689
74.691
77.505
80.8528
84.8461
89.4712
94.5972
100
100
85.1589
71.124
58.5706
47.9473
39.4385
32.9844
28.3458
25.1863
23.1493
21.9145
21.2311
20.9311
20.9311
21.2311
21.9145
23.1493
25.1863
28.3458
32.9844
39.4385
47.9473
58.5706
71.124
85.1589
100
-300
-300
-300
-300
-300
-300
-300
-300
-300
-300
-300
-300
-300
-300
-300
-300
-300
-300
-300
-300
-300
-300
-300
-300
100
84.0417
69.3122
56.5888
46.2339
38.3106
32.6877
29.1336
27.395
27.2524
28.5405
31.1339
34.897
39.6049
44.8409
49.9222
54.0891
57.5077
60.6427
63.9648
67.8596
72.5933
78.2885
84.9075
92.2536
100
100
85.1589
71.124
58.5706
47.9473
39.4385
32.9844
28.3458
25.1863
23.1493
21.9145
21.2311
20.9311
20.9311
21.2311
21.9145
23.1493
25.1863
28.3458
32.9844
39.4385
47.9473
58.5706
71.124
85.1589
100
-300
-300
-300
-300
-300
-300
-300
-300
-300
-300
-300
-300
-300
-300
-300
-300
-300
-300
-300
-300
-300
-300
-300
-300
100
84.5656
70.1339
57.4606
46.9793
38.8271
32.915
29.0173
26.8567
26.1681
26.7296
28.3593
30.8833
34.0886
37.6835
41.3097
44.6859
47.8893
51.2251
55.075
59.797
65.6548
72.7642
81.057
90.2746
100
100
85.1589
71.124
58.5706
47.9473
39.4385
32.9844
28.3458
25.1863
23.1493
21.9145
21.2311
20.9311
20.9311
21.2311
21.9145
23.1493
25.1863
28.3458
32.9844
39.4385
47.9473
58.5706
71.124
85.1589
100
-300
-300
-300
-300
-300
-300
-300
-300
-300
-300
-300
-300
-300
-300
-300
-300
-300
-300
-300
-300
-300
-300
-300
-300
100
84.8461
70.5937
57.9683
47.424
39.1305
33.0205
28.8697
26.3829
25.2624
25.2482
26.1257
27.7105
29.8237
32.2785
34.9039
37.6205
40.5356
43.9127
48.0943
53.4184
60.14
68.3611
77.983
88.6935
100
100
85.1589
71.124
58.5706
47.9473
39.4385
32.9844
28.3458
25.1863
23.1493
21.9145
21.2311
20.9311
20.9311
21.2311
21.9145
23.1493
25.1863
28.3458
32.9844
39.4385
47.9473
58.5705
71.124
85.1589
100
-300
-300
-300
-300
-300
-300
-300
-300
-300
-300
-300
-300
-300
-300
-300
-300
-300
-300
-300
-300
-300
-300
-300
-300
100
84.9968
70.8469
58.2545
47.6768
39.2963
33.0543
28.7251
25.9995
24.5579
24.1158
24.4411
25.3502
26.6965
28.3663
30.2959
32.5101
35.1596
38.5095
42.8917
48.6354
55.9876
65.0372
75.659
87.4972
100
100
85.1589
71.124
58.5706
47.9473
39.4385
32.9844
28.3458
25.1863
23.1493
21.9145
21.2311
20.9311
20.9311
21.2311
21.9144
23.1493
25.1863
28.3458
32.9843
39.4385
47.9473
58.5705
71.124
85.1589
100
-300
-300
-300
-300
-300
-300
-300
-300
-300
-300
-300
-300
-300
-300
-300
-300
-300
-300
-300
-300
-300
-300
-300
-300
100
85.0769
70.9833
58.4105
47.814
39.38
33.0526
28.6026
25.7113
24.0443
23.302
23.2433
23.6887
24.5157
25.6575
27.1132
28.9676
31.4065
34.7088
39.2082
45.2322
53.0229
62.6586
73.9936
86.6392
100
100
85.1589
71.124
58.5706
47.9473
39.4385
32.9844
28.3458
25.1863
23.1493
21.9145
21.2311
20.9311
20.9311
21.2311
21.9144
23.1492
25.1863
28.3457
32.9843
39.4384
47.9473
58.5705
71.124
85.1589
100
-300
-300
-300
-300
-300
-300
-300
-300
-300
-300
-300
-300
-300
-300
-300
-300
-300
-300
-300
-300
-300
-300
-300
-300
100
85.1185
71.0548
58.4924
47.8848
39.4185
33.0375
28.5094
25.5087
23.6917
22.7499
22.4374
22.5787
23.0675
23.8661
25.0101
26.62
28.9069
32.1634
36.7291
42.9325
51.0138
61.0435
72.8613
86.0556
100
100
85.1589
71.124
58.5706
47.9473
39.4385
32.9844
28.3458
25.1863
23.1493
21.9145
21.2311
20.9311
20.9311
21.2311
21.9144
23.1492
25.1862
28.3457
32.9843
39.4384
47.9472
58.5704
71.1239
85.1589
100
-300
-300
-300
-300
-300
-300
-300
-300
-300
-300
-300
-300
-300
-300
-300
-300
-300
-300
-300
-300
-300
-300
-300
-300
100
85.1396
71.091
58.5338
47.9195
39.4341
33.0206
28.4442
25.3748
23.4631
22.3952
21.9229
21.8737
22.1514
22.7353
23.6826
25.1348
27.3196
30.5401
35.1419
41.4556
49.7203
60.002
72.1304
85.6785
100
100
85.1589
71.124
58.5706
47.9473
39.4385
32.9844
28.3458
25.1863
23.1493
21.9144
21.2311
20.9311
20.9311
21.2311
21.9144
23.1492
25.1862
28.3456
32.9841
39.4382
47.947
58.5702
71.1238
85.1588
100
-300
-300
-300
-300
-300
-300
-300
-300
-300
-300
-300
-300
-300
-300
-300
-300
-300
-300
-300
-300
-300
-300
-300
-300
100
85.1499
71.1087
58.5537
47.9354
39.4391
33.0068
28.4018
25.2913
23.3227
22.179
21.6108
21.4476
21.5991
22.0543
22.8827
24.2382
26.3585
29.554
34.1747
40.5532
48.9285
59.3635
71.6818
85.447
100
100
85.1589
71.124
58.5706
47.9473
39.4385
32.9844
28.3458
25.1863
23.1493
21.9144
21.2311
20.9311
20.9311
21.231
21.9143
23.149
25.1859
28.3453
32.9837
39.4377
47.9465
58.5698
71.1234
85.1586
100
-300
-300
-300
-300
-300
-300
-300
-300
-300
-300
-300
-300
-300
-300
-300
-300
-300
-300
-300
-300
-300
-300
-300
-300
100
85.1546
71.1167
58.5626
47.942
39.4396
32.9968
28.3758
25.2419
23.2407
22.0536
21.4306
21.2022
21.2815
21.663
22.4228
23.7217
25.8036
28.9831
33.6133
40.0284
48.4672
58.991
71.42
85.3118
100
100
85.1589
71.124
58.5706
47.9473
39.4385
32.9844
28.3458
25.1863
23.1493
21.9144
21.2311
20.9311
20.931
21.2309
21.9141
23.1487
25.1854
28.3445
32.9828
39.4366
47.9453
58.5686
71.1225
85.1581
100
-300
-300
-300
-300
-300
-300
-300
-300
-300
-300
-300
-300
-300
-300
-300
-300
-300
-300
-300
-300
-300
-300
-300
-300
100
85.1564
71.1196
58.5657
47.9437
39.4381
32.9899
28.3603
25.2139
23.195
21.9843
21.3313
21.0674
21.1073
21.4483
22.1703
23.4378
25.4979
28.668
33.3028
39.7375
48.2111
58.7841
71.2744
85.2366
100
100
85.1589
71.124
58.5706
47.9473
39.4385
32.9844
28.3458
25.1863
23.1492
21.9144
21.231
20.931
20.9309
21.2306
21.9136
23.1479
25.1843
28.3429
32.9806
39.4341
47.9426
58.566
71.1204
85.1569
100
-300
-300
-300
-300
-300
-300
-300
-300
-300
-300
-300
-300
-300
-300
-300
-300
-300
-300
-300
-300
-300
-300
-300
-300
100
85.1562
71.1193
58.5648
47.942
39.4351
32.9843
28.3507
25.1981
23.1704
21.9476
21.2791
20.9966
21.016
21.3358
22.038
23.2887
25.3371
28.5019
33.1389
39.5837
48.0756
58.6744
71.1972
85.1968
100
100
85.1589
71.124
58.5706
47.9473
39.4385
32.9844
28.3458
25.1863
23.1492
21.9144
21.231
20.9308
20.9306
21.2301
21.9126
23.1463
25.1818
28.3394
32.9761
39.4285
47.9366
58.5603
71.1159
85.1544
100
-300
-300
-300
-300
-300
-300
-300
-300
-300
-300
-300
-300
-300
-300
-300
-300
-300
-300
-300
-300
-300
-300
-300
-300
100
85.1541
71.1154
58.5598
47.9364
39.4291
32.9778
28.3431
25.1883
23.1567
21.9284
21.2525
20.961
20.9701
21.2795
21.9716
23.2139
25.2563
28.4183
33.0562
39.5061
48.0071
58.619
71.1582
85.1766
100
100
85.1589
71.124
58.5706
47.9473
39.4385
32.9844
28.3458
25.1863
23.1492
21.9143
21.2308
20.9305
20.9299
21.2289
21.9106
23.143
25.1768
28.3323
32.9666
39.417
47.9239
58.5481
71.1061
85.149
100
-300
-300
-300
-300
-300
-300
-300
-300
-300
-300
-300
-300
-300
-300
-300
-300
-300
-300
-300
-300
-300
-300
-300
-300
100
85.1488
71.1059
58.5479
47.9239
39.4173
32.9674
28.3339
25.1797
23.1477
21.9176
21.2389
20.9434
20.948
21.2523
21.9398
23.178
25.2175
28.3781
33.0164
39.4687
47.9741
58.5922
71.1393
85.1668
100
100
85.1589
71.124
58.5706
47.9473
39.4385
32.9843
28.3457
25.1863
23.1491
21.9142
21.2305
20.9299
20.9287
21.2267
21.9067
23.1366
25.1669
28.318
32.9476
39.3938
47.8982
58.5232
71.0861
85.1377
100
-300
-300
-300
-300
-300
-300
-300
-300
-300
-300
-300
-300
-300
-300
-300
-300
-300
-300
-300
-300
-300
-300
-300
-300
100
85.1377
71.086
58.5231
47.8982
39.3939
32.9479
28.3187
25.1682
23.1386
21.9097
21.2309
20.9345
20.9373
21.2397
21.925
23.1614
25.1996
28.3596
32.9981
39.4515
47.9588
58.5799
71.1306
85.1623
100
100
85.1589
71.124
58.5706
47.9473
39.4385
32.9843
28.3457
25.1862
23.149
21.9139
21.2299
20.9287
20.9265
21.2226
21.8995
23.1247
25.1484
28.2911
32.9112
39.3488
47.848
58.474
71.0461
85.1152
100
-300
-300
-300
-300
-300
-300
-300
-300
-300
-300
-300
-300
-300
-300
-300
-300
-300
-300
-300
-300
-300
-300
-300
-300
100
85.1152
71.0461
58.4739
47.848
39.3488
32.9114
28.2914
25.1489
23.1255
21.9008
21.2243
20.9289
20.9318
21.2337
21.9184
23.1541
25.1917
28.3514
32.99
39.4438
47.9521
58.5744
71.1267
85.1603
100
100
85.1589
71.124
58.5706
47.9473
39.4385
32.9843
28.3457
25.1861
23.1488
21.9135
21.229
20.9268
20.9226
21.2154
21.8868
23.1035
25.1151
28.2421
32.8445
39.2653
47.7535
58.3801
70.9691
85.0713
100
-300
-300
-300
-300
-300
-300
-300
-300
-300
-300
-300
-300
-300
-300
-300
-300
-300
-300
-300
-300
-300
-300
-300
-300
100
85.0713
70.9691
58.3801
47.7535
39.2653
32.8446
28.2423
25.1153
23.1038
21.8873
21.2161
20.9236
20.928
21.2305
21.9152
23.1508
25.1883
28.3479
32.9866
39.4406
47.9492
58.5721
71.1251
85.1595
100
100
85.1589
71.124
58.5705
47.9473
39.4385
32.9843
28.3456
25.186
23.1485
21.9128
21.2274
20.9236
20.9163
21.2034
21.8655
23.0676
25.0581
28.1574
32.7274
39.1162
47.5821
58.2069
70.8246
84.9881
100
-300
-300
-300
-300
-300
-300
-300
-300
-300
-300
-300
-300
-300
-300
-300
-300
-300
-300
-300
-300
-300
-300
-300
-300
100
84.9881
70.8246
58.2069
47.5821
39.1163
32.7274
28.1574
25.0581
23.0677
21.8657
21.2037
20.9166
20.924
21.228
21.9134
23.1493
25.1868
28.3465
32.9852
39.4393
47.9481
58.5711
71.1244
85.1591
100
100
85.1589
71.124
58.5705
47.9473
39.4385
32.9843
28.3456
25.1858
23.148
21.9117
21.225
20.9185
20.9063
21.1845
21.8315
23.0098
24.9652
28.0175
32.5307
38.8612
47.2824
57.8971
70.5602
84.833
100
-300
-300
-300
-300
-300
-300
-300
-300
-300
-300
-300
-300
-300
-300
-300
-300
-300
-300
-300
-300
-300
-300
-300
-300
100
84.833
70.5602
57.8971
47.2824
38.8612
32.5307
28.0175
24.9653
23.0098
21.8316
21.1846
20.9064
20.9187
21.2252
21.9119
23.1483
25.1861
28.3459
32.9846
39.4388
47.9476
58.5708
71.1242
85.159
100
100
85.1589
71.124
58.5705
47.9473
39.4384
32.9842
28.3454
25.1855
23.1473
21.91
21.2215
20.9111
20.8915
21.1563
21.7803
22.9216
24.8218
27.7976
32.2156
38.4432
46.7774
57.3589
70.0857
84.5466
100
-300
-300
-300
-300
-300
-300
-300
-300
-300
-300
-300
-300
-300
-300
-300
-300
-300
-300
-300
-300
-300
-300
-300
-300
100
84.5466
70.0857
57.3589
46.7774
38.4432
32.2156
27.7977
24.8218
22.9216
21.7804
21.1563
20.8915
20.9112
21.2216
21.9101
23.1474
25.1856
28.3455
32.9843
39.4385
47.9474
58.5706
71.1241
85.159
100
100
85.1589
71.124
58.5705
47.9473
39.4384
32.9842
28.3453
25.1851
23.1464
21.9078
21.2166
20.9009
20.8708
21.1165
21.7074
22.7946
24.612
27.4703
31.7357
37.7884
45.959
56.4498
69.2455
84.0147
100
-300
-300
-300
-300
-300
-300
-300
-300
-300
-300
-300
-300
-300
-300
-300
-300
-300
-300
-300
-300
-300
-300
-300
-300
100
84.0147
69.2455
56.4498
45.959
37.7884
31.7357
27.4703
24.612
22.7946
21.7074
21.1165
20.8708
20.9009
21.2167
21.9079
23.1464
25.1851
28.3453
32.9842
39.4385
47.9474
58.5706
71.124
85.1589
100
100
85.1589
71.124
58.5705
47.9473
39.4384
32.9841
28.3451
25.1846
23.1451
21.905
21.2103
20.8874
20.8435
21.0636
21.6096
22.6222
24.3228
27.0101
31.0442
36.8138
44.6882
54.958
67.7669
82.9997
100
-300
-300
-300
-300
-300
-300
-300
-300
-300
-300
-300
-300
-300
-300
-300
-300
-300
-300
-300
-300
-300
-300
-300
-300
100
82.9997
67.7669
54.958
44.6882
36.8138
31.0442
27.0101
24.3228
22.6222
21.6096
21.0636
20.8435
20.8874
21.2103
21.905
23.1451
25.1846
28.3451
32.9841
39.4384
47.9473
58.5705
71.124
85.1589
100
100
85.1589
71.124
58.5705
47.9473
39.4384
32.984
28.3448
25.184
23.1436
21.9015
21.2025
20.8709
20.8098
20.9977
21.4866
22.4026
23.9489
26.4034
30.1083
35.447
42.8148
52.5967
65.1745
80.945
100
-300
-300
-300
-300
-300
-300
-300
-300
-300
-300
-300
-300
-300
-300
-300
-300
-300
-300
-300
-300
-300
-300
-300
-300
100
80.945
65.1745
52.5967
42.8148
35.447
30.1083
26.4034
23.9489
22.4026
21.4866
20.9977
20.8098
20.8709
21.2025
21.9015
23.1436
25.184
28.3448
32.984
39.4384
47.9473
58.5705
71.124
85.1589
100
100
85.1589
71.124
58.5705
47.9473
39.4383
32.9839
28.3445
25.1832
23.1419
21.8975
21.1936
20.8519
20.7707
20.9208
21.3417
22.1414
23.498
25.6587
28.931
33.6661
40.2407
49.0646
60.6975
76.3586
100
100
100
100
100
100
100
100
100
100
100
100
100
100
100
100
100
100
100
100
100
100
100
100
100
100
76.3586
60.6975
49.0646
40.2407
33.6661
28.931
25.6587
23.498
22.1414
21.3417
20.9208
20.7707
20.8519
21.1936
21.8975
23.1419
25.1832
28.3445
32.9839
39.4383
47.9473
58.5705
71.124
85.1589
100
100
85.1589
71.124
58.5705
47.9473
39.4383
32.9838
28.3442
25.1825
23.1401
21.8932
21.1841
20.8313
20.7283
20.8369
21.1826
21.8521
22.9936
24.8141
27.5707
31.5517
37.0484
44.3208
53.5472
64.6514
76.3586
80.945
82.9997
84.0147
84.5466
84.833
84.9881
85.0713
85.1152
85.1377
85.1488
85.154
85.1561
85.1561
85.154
85.1488
85.1377
85.1152
85.0713
84.9881
84.833
84.5466
84.0147
82.9997
80.945
76.3586
64.6514
53.5472
44.3208
37.0484
31.5517
27.5707
24.8141
22.9936
21.8521
21.1826
20.8369
20.7283
20.8313
21.1841
21.8932
23.1401
25.1825
28.3442
32.9838
39.4383
47.9473
58.5705
71.124
85.1589
100
100
85.1589
71.124
58.5705
47.9473
39.4382
32.9837
28.344
25.1818
23.1383
21.8889
21.1744
20.8105
20.6852
20.7515
21.0198
21.5547
22.4717
23.9338
26.1403
29.3057
33.6224
39.2039
45.9884
53.5472
60.6975
65.1745
67.7669
69.2455
70.0857
70.5602
70.8246
70.9691
71.0461
71.086
71.1059
71.1152
71.1189
71.1189
71.1152
71.1059
71.086
71.0461
70.9691
70.8246
70.5602
70.0857
69.2455
67.7669
65.1745
60.6975
53.5472
45.9884
39.2039
33.6224
29.3057
26.1403
23.9338
22.4717
21.5547
21.0198
20.7515
20.6852
20.8105
21.1744
21.8889
23.1383
25.1818
28.344
32.9837
39.4382
47.9473
58.5705
71.124
85.1589
100
100
85.1589
71.124
58.5705
47.9473
39.4382
32.9836
28.3437
25.1811
23.1366
21.8849
21.1653
20.7908
20.6444
20.6702
20.8648
21.2706
21.9721
23.0894
24.7673
27.1532
30.362
34.4226
39.2039
44.3208
49.0646
52.5967
54.958
56.4498
57.3589
57.8971
58.2069
58.3801
58.4739
58.523
58.5478
58.5595
58.5641
58.5641
58.5595
58.5478
58.523
58.4739
58.3801
58.2069
57.8971
57.3589
56.4498
54.958
52.5967
49.0646
44.3208
39.2039
34.4226
30.362
27.1532
24.7673
23.0894
21.9721
21.2706
20.8648
20.6702
20.6444
20.7908
21.1653
21.8849
23.1366
25.1811
28.3437
32.9836
39.4382
47.9473
58.5705
71.124
85.1589
100
100
85.1589
71.1241
58.5706
47.9473
39.4383
32.9836
28.3436
25.1805
23.1351
21.8814
21.1574
20.7735
20.6083
20.5982
20.7271
21.0182
21.5283
22.3405
23.5539
25.2642
27.5357
30.362
33.6224
37.0484
40.2407
42.8148
44.6882
45.959
46.7774
47.2823
47.5821
47.7535
47.848
47.8981
47.9236
47.9357
47.9405
47.9405
47.9357
47.9236
47.8981
47.848
47.7535
47.5821
47.2823
46.7774
45.959
44.6882
42.8148
40.2407
37.0484
33.6224
30.362
27.5357
25.2642
23.5539
22.3405
21.5283
21.0182
20.7271
20.5982
20.6083
20.7735
21.1574
21.8814
23.1351
25.1805
28.3436
32.9836
39.4383
47.9473
58.5706
71.1241
85.1589
100
100
85.159
71.1242
58.5707
47.9475
39.4385
32.9837
28.3436
25.1803
23.1341
21.8787
21.1509
20.7592
20.5784
20.5385
20.6129
20.809
21.161
21.7229
22.5585
23.7275
25.2642
27.1532
29.3057
31.5517
33.6661
35.447
36.8138
37.7884
38.4432
38.8612
39.1162
39.2652
39.3487
39.3936
39.4167
39.4278
39.4322
39.4322
39.4278
39.4167
39.3936
39.3487
39.2652
39.1162
38.8612
38.4432
37.7884
36.8138
35.447
33.6661
31.5517
29.3057
27.1532
25.2642
23.7275
22.5585
21.7229
21.161
20.809
20.6129
20.5385
20.5784
20.7592
21.1509
21.8787
23.1341
25.1803
28.3436
32.9837
39.4385
47.9475
58.5707
71.1242
85.159
100
100
85.1591
71.1244
58.5711
47.948
39.439
32.9843
28.3441
25.1806
23.1338
21.8771
21.1464
20.7486
20.5557
20.4925
20.5244
20.6468
20.8769
21.2468
21.7955
22.5585
23.5539
24.7673
26.1403
27.5707
28.931
30.1083
31.0442
31.7357
32.2156
32.5307
32.7274
32.8445
32.9112
32.9475
32.9663
32.9754
32.979
32.979
32.9754
32.9663
32.9475
32.9112
32.8445
32.7274
32.5307
32.2156
31.7357
31.0442
30.1083
28.931
27.5707
26.1403
24.7673
23.5539
22.5585
21.7955
21.2468
20.8769
20.6468
20.5244
20.4925
20.5557
20.7486
21.1464
21.8771
23.1338
25.1806
28.3441
32.9843
39.439
47.948
58.5711
71.1244
85.1591
100
100
85.1595
71.1251
58.5721
47.9492
39.4404
32.9858
28.3457
25.182
23.1349
21.8773
21.1444
20.7422
20.5403
20.4601
20.461
20.5298
20.6715
20.903
21.2468
21.7229
22.3405
23.0894
23.9338
24.8141
25.6587
26.4034
27.0101
27.4703
27.7976
28.0175
28.1574
28.2421
28.291
28.318
28.3321
28.3389