# vtk DataFile Version 2.0
LBE two cylinders
ASCII
DATASET STRUCTURED_POINTS
DIMENSIONS 76 76 1
ASPECT_RATIO 1 1 1
ORIGIN 0 0 0
POINT_DATA 5776
SCALARS temp double 1
LOOKUP_TABLE default
100
100
100
100
100
100
100
100
100
100
100
100
100
100
100
100
100
100
100
100
100
100
100
100
100
100
-300
-300
-300
-300
-300
-300
-300
-300
-300
-300
-300
-300
-300
-300
100
100
100
100
100
100
100
100
100
100
100
100
100
100
100
100
100
100
100
100
100
100
100
100
100
100
-300
-300
-300
-300
-300
-300
-300
-300
-300
-300
100
97.8658
95.8211
93.9443
92.2935
90.9022
89.7783
88.9084
88.264
87.809
87.5065
87.3243
87.2394
87.2394
87.3243
87.5065
87.809
88.264
88.9084
89.7783
90.9022
92.2935
93.9443
95.8211
97.8658
100
-300
-300
-300
-300
-300
-300
-300
-300
-300
-300
-300
-300
-300
-300
100
97.8658
95.8211
93.9443
92.2936
90.9023
89.7784
88.9084
88.2641
87.8091
87.5065
87.3244
87.2394
87.2394
87.3244
87.5065
87.809
88.264
88.9084
89.7783
90.9022
92.2935
93.9443
95.8211
97.8658
100
-300
-300
-300
-300
-300
-300
-300
-300
-300
-300
100
95.8211
91.8175
88.1426
84.9105
82.1862
79.9856
78.2824
77.0207
76.1299
75.5375
75.181
75.0147
75.0147
75.181
75.5375
76.1299
77.0207
78.2824
79.9856
82.1862
84.9105
88.1426
91.8175
95.8211
100
-300
-300
-300
-300
-300
-300
-300
-300
-300
-300
-300
-300
-300
-300
100
95.8211
91.8176
88.1427
84.9106
82.1864
79.9858
78.2826
77.0209
76.13
75.5377
75.1811
75.0148
75.0147
75.1811
75.5376
76.1299
77.0207
78.2824
79.9856
82.1862
84.9105
88.1426
91.8175
95.8211
100
-300
-300
-300
-300
-300
-300
-300
-300
-300
-300
100
93.9442
88.1425
82.8172
78.1336
74.1859
70.9971
68.5291
66.701
65.4102
64.552
64.0354
63.7944
63.7944
64.0354
64.552
65.4102
66.701
68.5291
70.9971
74.1859
78.1336
82.8172
88.1425
93.9442
100
-300
-300
-300
-300
-300
-300
-300
-300
-300
-300
-300
-300
-300
-300
100
93.9443
88.1427
82.8175
78.134
74.1864
70.9976
68.5296
66.7015
65.4106
64.5524
64.0358
63.7947
63.7946
64.0356
64.5521
65.4103
66.7011
68.5291
70.9971
74.1859
78.1336
82.8172
88.1425
93.9442
100
-300
-300
-300
-300
-300
-300
-300
-300
-300
-300
100
92.2933
84.9101
78.1332
72.1729
67.1493
63.0915
59.951
57.6248
55.9824
54.8904
54.2331
53.9265
53.9265
54.2331
54.8904
55.9824
57.6248
59.951
63.0915
67.1493
72.1729
78.1332
84.9101
92.2933
100
-300
-300
-300
-300
-300
-300
-300
-300
-300
-300
-300
-300
-300
-300
100
92.2936
84.9106
78.1339
72.1738
67.1504
63.0927
59.9522
57.626
55.9835
54.8914
54.234
53.9272
53.9271
54.2336
54.8908
55.9826
57.625
59.9511
63.0916
67.1493
72.1729
78.1332
84.9101
92.2933
100
-300
-300
-300
-300
-300
-300
-300
-300
-300
-300
100
90.9016
82.1851
74.1845
67.148
61.2176
56.4274
52.7202
49.9743
48.0357
46.7468
45.9711
45.6091
45.6091
45.9711
46.7468
48.0357
49.9743
52.7202
56.4274
61.2176
67.148
74.1845
82.1851
90.9016
100
-300
-300
-300
-300
-300
-300
-300
-300
-300
-300
-300
-300
-300
-300
100
90.9022
82.1863
74.1863
67.1503
61.2202
56.4302
52.723
49.9771
48.0383
46.7492
45.9731
45.6109
45.6105
45.9722
46.7476
48.0363
49.9747
52.7204
56.4276
61.2177
67.1481
74.1845
82.1851
90.9016
100
-300
-300
-300
-300
-300
-300
-300
-300
-300
-300
100
89.7768
79.9828
70.9933
63.0872
56.4241
51.0422
46.8771
43.7923
41.6144
40.1666
39.2952
38.8886
38.8886
39.2952
40.1666
41.6144
43.7923
46.8771
51.0422
56.4241
63.0872
70.9933
79.9828
89.7768
100
-300
-300
-300
-300
-300
-300
-300
-300
-300
-300
-300
-300
-300
-300
100
89.7783
79.9856
70.9973
63.0923
56.4299
51.0484
46.8835
43.7986
41.6203
40.1719
39.2998
38.8925
38.8918
39.2976
40.1684
41.6158
43.7932
46.8777
51.0425
56.4243
63.0873
70.9933
79.9828
89.7768
100
-300
-300
-300
-300
-300
-300
-300
-300
-300
-300
100
88.905
78.2759
68.52
59.9401
52.7092
46.8689
42.3492
39.0019
36.6388
35.0679
34.1224
33.6813
33.6813
34.1224
35.0679
36.6388
39.0019
42.3492
46.8689
52.7092
59.9401
68.52
78.2759
88.905
100
-300
-300
-300
-300
-300
-300
-300
-300
-300
-300
-300
-300
-300
-300
100
88.9083
78.2822
68.529
59.9513
52.7219
46.8825
42.3632
39.0156
36.6517
35.0795
34.1326
33.6899
33.6883
34.1278
35.0719
36.6417
39.0039
42.3505
46.8697
52.7096
59.9403
68.5201
78.2759
88.905
100
-300
-300
-300
-300
-300
-300
-300
-300
-300
-300
100
88.2569
77.0068
66.6812
57.6003
49.9474
43.7664
38.9832
35.4409
32.9402
31.2779
30.2775
29.8108
29.8108
30.2775
31.2779
32.9402
35.4409
38.9832
43.7664
49.9474
57.6003
66.6812
77.0068
88.2569
100
-300
-300
-300
-300
-300
-300
-300
-300
-300
-300
-300
-300
-300
-300
100
88.2637
77.0201
66.7001
57.6239
49.9743
43.7953
39.0128
35.4699
32.9675
31.3026
30.2991
29.829
29.8255
30.289
31.2865
32.9464
35.4452
38.986
43.768
49.9483
57.6007
66.6813
77.0068
88.2568
100
-300
-300
-300
-300
-300
-300
-300
-300
-300
-300
100
87.7943
76.1012
65.369
55.9308
47.9768
41.5528
36.5818
32.9004
30.3017
28.5742
27.5346
27.0497
27.0497
27.5346
28.5742
30.3017
32.9004
36.5818
41.5528
47.9768
55.9308
65.369
76.1012
87.7943
100
-300
-300
-300
-300
-300
-300
-300
-300
-300
-300
-300
-300
-300
-300
100
87.8083
76.1283
65.4077
55.979
48.0319
41.6121
36.6425
32.96
30.3578
28.6251
27.5792
27.0872
27.0801
27.5584
28.592
30.3144
32.9092
36.5874
41.5561
47.9785
55.9315
65.3692
76.1011
87.7942
100
-300
-300
-300
-300
-300
-300
-300
-300
-300
-300
100
87.4774
75.4807
64.47
54.787
46.6268
40.0364
34.9367
31.1602
28.4944
26.7224
25.656
25.1585
25.1585
25.656
26.7224
28.4944
31.1602
34.9367
40.0364
46.6268
54.787
64.47
75.4807
87.4774
100
-300
-300
-300
-300
-300
-300
-300
-300
-300
-300
-300
-300
-300
-300
100
87.505
75.5344
64.5466
54.8824
46.736
40.154
35.0572
31.2785
28.6059
26.8237
25.7446
25.2333
25.2192
25.7033
26.7578
28.5197
31.1775
34.9477
40.0428
46.63
54.7882
64.4701
75.4805
87.4771
100
-300
-300
-300
-300
-300
-300
-300
-300
-300
-300
100
87.2688
75.0723
63.8783
54.0341
45.7383
39.0384
33.8542
30.0151
27.3052
25.5039
24.4199
23.9143
23.9143
24.4199
25.5039
27.3052
30.0151
33.8542
39.0384
45.7383
54.0341
63.8783
75.0723
87.2688
100
-300
-300
-300
-300
-300
-300
-300
-300
-300
-300
-300
-300
-300
-300
100
87.3216
75.1749
64.025
54.217
45.9477
39.2641
34.0856
30.2424
27.5197
25.6989
24.5907
24.0583
24.0311
24.5111
25.5721
27.3539
30.0481
33.8751
39.0505
45.7442
54.0362
63.8782
75.0715
87.2681
100
-300
-300
-300
-300
-300
-300
-300
-300
-300
-300
100
87.1368
74.8139
63.5039
53.5579
45.1762
38.4072
33.1695
29.2909
26.5531
24.7333
23.6382
23.1274
23.1274
23.6382
24.7333
26.5531
29.2909
33.1695
38.4072
45.1762
53.5579
63.5039
74.8139
87.1368
100
-300
-300
-300
-300
-300
-300
-300
-300
-300
-300
-300
-300
-300
-300
100
87.2345
75.0038
63.7754
53.8965
45.5644
38.8258
33.5991
29.7134
26.9524
25.0965
23.9564
23.3958
23.3452
23.808
24.8601
26.6434
29.3518
33.2077
38.4288
45.1864
53.5608
63.503
74.8119
87.1353
100
-300
-300
-300
-300
-300
-300
-300
-300
-300
-300
100
87.0565
74.6567
63.2761
53.2681
44.8343
38.0232
32.753
28.8504
26.0956
24.2647
23.1628
22.6489
22.6489
23.1628
24.2647
26.0956
28.8504
32.753
38.0232
44.8343
53.2681
63.2761
74.6567
87.0565
100
-300
-300
-300
-300
-300
-300
-300
-300
-300
-300
-300
-300
-300
-300
100
87.2311
74.9961
63.7618
53.8742
45.5297
38.7739
33.5245
29.6099
26.8142
24.9189
23.7362
23.1325
23.0412
23.4683
24.4925
26.2575
28.959
32.8205
38.0605
44.8508
53.2716
63.2729
74.6517
87.0531
100
-300
-300
-300
-300
-300
-300
-300
-300
-300
-300
100
87.0095
74.5646
63.1428
53.0985
44.6342
37.7984
32.5092
28.5926
25.8279
23.9904
22.8846
22.3688
22.3688
22.8846
23.9904
25.8279
28.5926
32.5092
37.7984
44.6342
53.0985
63.1428
74.5646
87.0095
100
-300
-300
-300
-300
-300
-300
-300
-300
-300
-300
-300
-300
-300
-300
100
87.3109
75.151
63.9822
54.1468
45.8382
39.0998
33.8485
29.9128
27.0785
25.1299
23.8839
23.2117
23.052
23.416
24.3858
26.108
28.7792
32.6238
37.86
44.6592
53.1008
63.1338
74.5534
87.0022
100
-300
-300
-300
-300
-300
-300
-300
-300
-300
-300
100
86.983
74.5128
63.0676
53.0029
44.5213
37.6718
32.3718
28.4473
25.6771
23.8359
22.7279
22.2111
22.2111
22.7279
23.8359
25.6771
28.4473
32.3718
37.6718
44.5213
53.0029
63.0676
74.5128
86.983
100
-300
-300
-300
-300
-300
-300
-300
-300
-300
-300
-300
-300
-300
-300
100
87.4858
75.4911
64.4693
54.755
46.5361
39.8526
34.6196
30.6665
27.782
25.7558
24.4121
23.6313
23.3612
23.621
24.4988
26.1446
28.7566
32.5588
37.7687
44.5561
52.9993
63.0456
74.4884
86.9677
100
-300
-300
-300
-300
-300
-300
-300
-300
-300
-300
100
86.9686
74.4846
63.0268
52.951
44.4601
37.603
32.2972
28.3684
25.5952
23.752
22.6428
22.1254
22.1254
22.6428
23.752
25.5952
28.3684
32.2972
37.603
44.4601
52.951
63.0268
74.4846
86.9686
100
-300
-300
-300
-300
-300
-300
-300
-300
-300
-300
-300
-300
-300
-300
100
87.7788
76.0618
65.288
55.7806
47.7184
41.1357
35.9451
31.9765
29.0227
26.8815
25.389
24.4399
23.9973
24.0932
24.825
26.348
28.8621
32.5902
37.7477
44.5025
52.9305
62.9774
74.4343
86.9379
100
-300
-300
-300
-300
-300
-300
-300
-300
-300
-300
100
86.961
74.4698
63.0054
52.9238
44.428
37.567
32.2582
28.3271
25.5524
23.7081
22.5983
22.0806
22.0806
22.5983
23.7081
25.5524
28.3271
32.2582
37.567
44.428
52.9238
63.0054
74.4698
86.961
100
-300
-300
-300
-300
-300
-300
-300
-300
-300
-300
-300
-300
-300
-300
100
88.2222
76.926
66.5299
57.3396
49.5211
43.0999
37.9838
34.0027
30.9538
28.6455
26.9314
25.7292
25.0258
24.8737
25.3848
26.7215
29.0855
32.698
37.7707
44.4682
52.864
62.9017
74.37
86.9012
100
-300
-300
-300
-300
-300
-300
-300
-300
-300
-300
100
86.9572
74.4624
62.9946
52.91
44.4118
37.5488
32.2385
28.3063
25.5307
23.6859
22.5758
22.058
22.058
22.5758
23.6859
25.5307
28.3063
32.2385
37.5488
44.4118
52.91
62.9946
74.4624
86.9572
100
-300
-300
-300
-300
-300
-300
-300
-300
-300
-300
-300
-300
-300
-300
100
88.8539
78.1582
68.3031
59.5705
52.1083
45.9294
40.9341
36.9489
33.7741
31.2305
29.196
27.6237
26.5384
26.0244
26.2145
27.2811
29.427
32.8697
37.8157
44.4249
52.7681
62.788
74.271
86.8438
100
-300
-300
-300
-300
-300
-300
-300
-300
-300
-300
100
86.9554
74.4587
62.9894
52.9034
44.4039
37.54
32.2289
28.2961
25.5202
23.6751
22.5649
22.047
22.047
22.5649
23.6751
25.5202
28.2961
32.2289
37.54
44.4039
52.9034
62.9894
74.4587
86.9554
100
-300
-300
-300
-300
-300
-300
-300
-300
-300
-300
-300
-300
-300
-300
100
89.7117
79.8331
70.7172
62.6152
55.6514
49.8217
45.0138
41.0458
37.715
34.8519
32.3661
30.2664
28.6379
27.6132
27.3541
28.0449
29.8876
33.0927
37.8585
44.3389
52.6033
62.5956
74.1028
86.7457
100
-300
-300
-300
-300
-300
-300
-300
-300
-300
-300
100
86.9545
74.457
62.9869
52.9002
44.4002
37.5358
32.2244
28.2914
25.5152
23.6701
22.5597
22.0418
22.0418
22.5597
23.6701
25.5152
28.2914
32.2244
37.5358
44.4002
52.9002
62.9869
74.457
86.9545
100
-300
-300
-300
-300
-300
-300
-300
-300
-300
-300
-300
-300
-300
-300
100
90.8268
82.0125
73.8642
66.5954
60.3021
54.9587
50.4351
46.531
43.0258
39.7458
36.6364
33.7991
31.4178
29.6958
28.8322
29.0217
30.4607
33.3469
37.8659
44.1648
52.3139
62.2647
73.8123
86.5745
100
-300
-300
-300
-300
-300
-300
-300
-300
-300
-300
100
86.9541
74.4562
62.9858
52.8988
44.3985
37.5339
32.2223
28.2892
25.513
23.6677
22.5574
22.0394
22.0394
22.5574
23.6677
25.513
28.2892
32.2223
37.5339
44.3985
52.8988
62.9858
74.4562
86.9541
100
-300
-300
-300
-300
-300
-300
-300
-300
-300
-300
-300
-300
-300
-300
100
92.2155
84.7296
77.7956
71.5839
66.1591
61.4728
57.3725
53.6254
49.9636
46.1662
42.1976
38.3367
34.9343
32.2921
30.648
30.1987
31.1241
33.5997
37.7925
43.841
51.8214
61.7049
73.3128
86.2738
100
-300
-300
-300
-300
-300
-300
-300
-300
-300
-300
100
86.9539
74.4559
62.9853
52.8981
44.3978
37.5331
32.2214
28.2882
25.512
23.6667
22.5564
22.0384
22.0384
22.5564
23.6667
25.512
28.2882
32.2214
37.5331
44.3978
52.8981
62.9853
74.4559
86.9539
100
-300
-300
-300
-300
-300
-300
-300
-300
-300
-300
-300
-300
-300
-300
100
93.8724
87.9751
82.5016
77.5764
73.2343
69.4081
65.9257
62.511
58.7995
54.4126
49.222
43.9275
39.1675
35.3574
32.7538
31.5317
31.8353
33.8046
37.5796
43.2879
51.0178
60.7803
72.4593
85.7389
100
-300
-300
-300
-300
-300
-300
-300
-300
-300
-300
100
86.9538
74.4558
62.9851
52.8979
44.3975
37.5327
32.221
28.2878
25.5116
23.6663
22.5559
22.038
22.038
22.5559
23.6663
25.5116
28.2878
32.221
37.5327
44.3975
52.8979
62.9851
74.4558
86.9538
100
-300
-300
-300
-300
-300
-300
-300
-300
-300
-300
-300
-300
-300
-300
100
95.7654
91.6872
87.8951
84.4689
81.4203
78.6787
76.0731
73.2985
69.8517
64.9595
57.8382
50.4824
43.9661
38.7513
35.0401
32.9394
32.5318
33.9052
37.1624
42.415
49.767
59.293
71.0025
84.7545
100
-300
-300
-300
-300
-300
-300
-300
-300
-300
-300
100
86.9538
74.4557
62.985
52.8978
44.3973
37.5326
32.2209
28.2877
25.5114
23.6661
22.5557
22.0378
22.0378
22.5557
23.6661
25.5114
28.2877
32.2209
37.5326
44.3973
52.8978
62.985
74.4557
86.9538
100
-300
-300
-300
-300
-300
-300
-300
-300
-300
-300
-300
-300
-300
-300
100
97.8353
95.7495
93.8075
92.0476
90.4705
89.0279
87.6013
85.9457
83.5203
78.9346
67.9916
57.6139
48.9709
42.214
37.3339
34.3102
33.1397
33.8462
36.4848
41.1397
47.9223
56.9772
68.5112
82.8207
100
-300
-300
-300
-300
-300
-300
-300
-300
-300
-300
100
86.9538
74.4557
62.9849
52.8977
44.3973
37.5325
32.2208
28.2876
25.5113
23.666
22.5557
22.0377
22.0377
22.5557
23.666
25.5113
28.2876
32.2208
37.5325
44.3973
52.8977
62.9849
74.4557
86.9538
100
-300
-300
-300
-300
-300
-300
-300
-300
-300
-300
-300
-300
-300
-300
100
100
100
100
100
100
100
100
100
100
100
78.6009
64.288
53.553
45.3835
39.426
35.5231
33.5912
33.5912
35.5231
39.426
45.3835
53.553
64.288
78.6008
100
100
100
100
100
100
100
100
100
100
100
100
86.9538
74.4557
62.9849
52.8977
44.3973
37.5325
32.2208
28.2876
25.5113
23.666
22.5556
22.0377
22.0377
22.5556
23.666
25.5113
28.2876
32.2208
37.5325
44.3973
52.8977
62.9849
74.4557
86.9538
100
-300
-300
-300
-300
-300
-300
-300
-300
-300
-300
-300
-300
-300
-300
-300
-300
-300
-300
-300
-300
-300
-300
-300
-300
100
82.8206
68.5111
56.9771
47.9223
41.1397
36.4847
33.8461
33.1396
34.3101
37.3338
42.2139
48.9708
57.6138
67.9915
78.9345
83.5202
85.9456
87.6012
89.0278
90.4704
92.0475
93.8075
95.7494
97.8352
100
100
86.9538
74.4557
62.9849
52.8977
44.3973
37.5325
32.2208
28.2876
25.5113
23.666
22.5556
22.0377
22.0377
22.5556
23.666
25.5113
28.2876
32.2208
37.5325
44.3973
52.8977
62.9849
74.4557
86.9538
100
-300
-300
-300
-300
-300
-300
-300
-300
-300
-300
-300
-300
-300
-300
-300
-300
-300
-300
-300
-300
-300
-300
-300
-300
100
84.7545
71.0025
59.2929
49.7669
42.4148
37.1622
33.905
32.5315
32.9392
35.0398
38.751
43.9658
50.4822
57.8379
64.9592
69.8514
73.2983
76.0728
78.6785
81.4201
84.4687
87.895
91.6871
95.7654
100
100
86.9538
74.4557
62.9849
52.8977
44.3973
37.5325
32.2208
28.2876
25.5113
23.666
22.5556
22.0377
22.0377
22.5556
23.666
25.5113
28.2876
32.2208
37.5325
44.3973
52.8977
62.9849
74.4557
86.9538
100
-300
-300
-300
-300
-300
-300
-300
-300
-300
-300
-300
-300
-300
-300
-300
-300
-300
-300
-300
-300
-300
-300
-300
-300
100
85.7388
72.459
60.78
51.0174
43.2874
37.579
33.804
31.8347
31.531
32.7531
35.3567
39.1667
43.9268
49.2213
54.4119
58.7988
62.5103
65.925
69.4075
73.2337
77.576
82.5012
87.9749
93.8722
100
100
86.9538
74.4557
62.9849
52.8977
44.3973
37.5325
32.2208
28.2876
25.5113
23.666
22.5556
22.0377
22.0377
22.5556
23.666
25.5113
28.2875
32.2208
37.5324
44.3972
52.8977
62.9849
74.4557
86.9538
100
-300
-300
-300
-300
-300
-300
-300
-300
-300
-300
-300
-300
-300
-300
-300
-300
-300
-300
-300
-300
-300
-300
-300
-300
100
86.2735
73.3122
61.704
51.8203
43.8397
37.791
33.5981
31.1225
30.197
30.6463
32.2903
34.9325
38.3349
42.1959
46.1644
49.962
53.6238
57.3709
61.4714
66.1578
71.5828
77.7947
84.729
92.2152
100
100
86.9538
74.4557
62.9849
52.8977
44.3973
37.5325
32.2208
28.2876
25.5113
23.666
22.5556
22.0377
22.0377
22.5556
23.666
25.5113
28.2875
32.2208
37.5324
44.3972
52.8977
62.9849
74.4556
86.9538
100
-300
-300
-300
-300
-300
-300
-300
-300
-300
-300
-300
-300
-300
-300
-300
-300
-300
-300
-300
-300
-300
-300
-300
-300
100
86.5738
73.8109
62.2627
52.3114
44.1619
37.8626
33.3432
30.4569
29.0177
28.8281
29.6917
31.4137
33.795
36.6323
39.7418
43.0219
46.5272
50.4315
54.9553
60.2991
66.5929
73.8622
82.0111
90.8261
100
100
86.9538
74.4557
62.9849
52.8977
44.3973
37.5325
32.2208
28.2876
25.5113
23.666
22.5556
22.0377
22.0377
22.5556
23.666
25.5112
28.2875
32.2207
37.5324
44.3972
52.8976
62.9849
74.4556
86.9538
100
-300
-300
-300
-300
-300
-300
-300
-300
-300
-300
-300
-300
-300
-300
-300
-300
-300
-300
-300
-300
-300
-300
-300
-300
100
86.7441
74.0997
62.5911
52.5976
44.3321
37.8509
33.0845
29.879
28.0359
27.345
27.6039
28.6286
30.257
32.3568
34.8427
37.7061
41.0372
45.0057
49.8142
55.6448
62.6096
70.7128
79.83
89.7102
100
100
86.9538
74.4557
62.9849
52.8977
44.3973
37.5325
32.2208
28.2876
25.5113
23.666
22.5556
22.0377
22.0376
22.5556
23.666
25.5112
28.2875
32.2207
37.5323
44.3971
52.8975
62.9848
74.4556
86.9537
100
-300
-300
-300
-300
-300
-300
-300
-300
-300
-300
-300
-300
-300
-300
-300
-300
-300
-300
-300
-300
-300
-300
-300
-300
100
86.8403
74.2641
62.7781
52.7556
44.4101
37.7992
32.8519
29.4082
27.2616
26.1945
26.0042
26.518
27.6033
29.1758
31.2106
33.7546
36.9301
40.9164
45.9131
52.0937
59.5581
68.2934
78.1515
88.8505
100
100
86.9538
74.4557
62.9849
52.8977
44.3973
37.5325
32.2208
28.2876
25.5113
23.666
22.5556
22.0376
22.0376
22.5555
23.6659
25.5111
28.2873
32.2205
37.5321
44.3969
52.8973
62.9846
74.4554
86.9537
100
-300
-300
-300
-300
-300
-300
-300
-300
-300
-300
-300
-300
-300
-300
-300
-300
-300
-300
-300
-300
-300
-300
-300
-300
100
86.8938
74.3556
62.8809
52.8375
44.4371
37.7359
32.6602
29.0457
26.6803
25.3426
24.831
24.9828
25.6862
26.8887
28.6034
30.9127
33.9631
37.9464
43.0653
49.4904
57.3136
66.5094
76.9119
88.215
100
100
86.9538
74.4557
62.9849
52.8977
44.3973
37.5325
32.2208
28.2875
25.5113
23.666
22.5556
22.0376
22.0376
22.5554
23.6657
25.5109
28.2871
32.2202
37.5317
44.3965
52.8969
62.9842
74.4551
86.9535
100
-300
-300
-300
-300
-300
-300
-300
-300
-300
-300
-300
-300
-300
-300
-300
-300
-300
-300
-300
-300
-300
-300
-300
-300
100
86.9228
74.4048
62.9349
52.8765
44.4389
37.6765
32.5131
28.7807
26.2637
24.7388
24.0058
23.9094
24.3521
25.3017
26.7955
28.9387
31.8956
35.8686
41.0651
47.6555
55.7273
65.2461
76.0329
87.7641
100
100
86.9538
74.4557
62.9849
52.8977
44.3973
37.5325
32.2208
28.2875
25.5112
23.666
22.5555
22.0375
22.0374
22.5552
23.6654
25.5105
28.2865
32.2194
37.5309
44.3955
52.896
62.9834
74.4545
86.9531
100
-300
-300
-300
-300
-300
-300
-300
-300
-300
-300
-300
-300
-300
-300
-300
-300
-300
-300
-300
-300
-300
-300
-300
-300
100
86.9379
74.4301
62.9614
52.8924
44.4303
37.6278
32.4064
28.5958
25.9779
24.3284
23.4484
23.1876
23.4578
24.2398
25.5859
27.6161
30.5068
34.4685
39.7133
46.412
54.6498
64.3866
75.4341
87.4566
100
100
86.9538
74.4557
62.9849
52.8977
44.3973
37.5324
32.2208
28.2875
25.5112
23.6659
22.5554
22.0374
22.0372
22.5548
23.6648
25.5096
28.2853
32.2179
37.5291
44.3936
52.894
62.9816
74.4531
86.9524
100
-300
-300
-300
-300
-300
-300
-300
-300
-300
-300
-300
-300
-300
-300
-300
-300
-300
-300
-300
-300
-300
-300
-300
-300
100
86.9451
74.4418
62.9726
52.8963
44.4186
37.5906
32.3325
28.472
25.7896
24.0603
23.0862
22.7203
22.8802
23.5547
24.8055
26.7617
29.6078
33.56
38.8338
45.6013
53.946
63.8243
75.042
87.2552
100
100
86.9538
74.4557
62.9849
52.8977
44.3973
37.5324
32.2207
28.2875
25.5112
23.6658
22.5553
22.0371
22.0367
22.554
23.6636
25.5079
28.2829
32.2149
37.5255
44.3896
52.8899
62.9779
74.4504
86.9509
100
-300
-300
-300
-300
-300
-300
-300
-300
-300
-300
-300
-300
-300
-300
-300
-300
-300
-300
-300
-300
-300
-300
-300
-300
100
86.9476
74.4454
62.9748
52.8934
44.4061
37.5628
32.2824
28.3915
25.6697
23.8914
22.8595
22.4289
22.5207
23.1287
24.32
26.2297
29.047
32.9922
38.2831
45.0926
53.5037
63.4706
74.7951
87.1284
100
100
86.9538
74.4557
62.9849
52.8977
44.3972
37.5324
32.2207
28.2875
25.5111
23.6656
22.5549
22.0365
22.0357
22.5525
23.6613
25.5045
28.2784
32.2091
37.5185
44.3818
52.882
62.9708
74.4449
86.9479
100
-300
-300
-300
-300
-300
-300
-300
-300
-300
-300
-300
-300
-300
-300
-300
-300
-300
-300
-300
-300
-300
-300
-300
-300
100
86.9465
74.4428
62.9699
52.885
44.3919
37.5401
32.2473
28.3393
25.5949
23.7881
22.7222
22.2534
22.3048
22.8731
24.0288
25.9104
28.71
32.6504
37.951
44.7854
53.2363
63.2565
74.6455
87.0515
100
100
86.9538
74.4557
62.9849
52.8977
44.3972
37.5324
32.2207
28.2874
25.5109
23.6653
22.5543
22.0354
22.0339
22.5497
23.657
25.4983
28.2699
32.1982
37.5053
44.3671
52.867
62.9571
74.4344
86.9422
100
-300
-300
-300
-300
-300
-300
-300
-300
-300
-300
-300
-300
-300
-300
-300
-300
-300
-300
-300
-300
-300
-300
-300
-300
100
86.9416
74.4336
62.957
52.869
44.373
37.5173
32.219
28.3029
25.547
23.7252
22.6408
22.1508
22.1794
22.7251
23.8603
25.7255
28.5146
32.452
37.758
44.6066
53.0805
63.1316
74.5583
87.0066
100
100
86.9538
74.4557
62.9849
52.8977
44.3972
37.5324
32.2206
28.2872
25.5106
23.6647
22.5533
22.0335
22.0308
22.5447
23.6493
25.4872
28.2546
32.1783
37.4812
44.3399
52.839
62.9315
74.4146
86.9314
100
-300
-300
-300
-300
-300
-300
-300
-300
-300
-300
-300
-300
-300
-300
-300
-300
-300
-300
-300
-300
-300
-300
-300
-300
100
86.9312
74.4144
62.9316
52.8403
44.3432
37.4877
32.1893
28.2719
25.5126
23.6848
22.592
22.0914
22.1083
22.6419
23.766
25.6221
28.4054
32.3411
37.65
44.5065
52.9931
63.0615
74.5093
86.9814
100
100
86.9538
74.4557
62.9849
52.8977
44.3972
37.5323
32.2205
28.2869
25.5101
23.6637
22.5515
22.0304
22.0255
22.5361
23.6362
25.468
28.2281
32.1436
37.4387
44.2915
52.7888
62.8851
74.3786
86.9117
100
-300
-300
-300
-300
-300
-300
-300
-300
-300
-300
-300
-300
-300
-300
-300
-300
-300
-300
-300
-300
-300
-300
-300
-300
100
86.9116
74.3786
62.8852
52.7895
44.2933
37.442
32.1492
28.2368
25.4808
23.654
22.5599
22.0559
22.0679
22.596
23.7146
25.5662
28.3464
32.2812
37.5916
44.4523
52.9458
63.0236
74.4828
86.9677
100
100
86.9538
74.4556
62.9849
52.8976
44.3972
37.5322
32.2203
28.2865
25.5092
23.6622
22.5486
22.0253
22.0169
22.5221
23.6146
25.4361
28.1834
32.0847
37.3657
44.2078
52.7009
62.8031
74.3145
86.8763
100
-300
-300
-300
-300
-300
-300
-300
-300
-300
-300
-300
-300
-300
-300
-300
-300
-300
-300
-300
-300
-300
-300
-300
-300
100
86.8763
74.3145
62.8032
52.7013
44.2087
37.3674
32.0874
28.1877
25.4423
23.6232
22.5337
22.0317
22.0435
22.5702
23.6869
25.5365
28.3155
32.2498
37.5611
44.424
52.9212
63.0038
74.4689
86.9606
100
100
86.9538
74.4556
62.9849
52.8976
44.3971
37.5321
32.22
28.2859
25.508
23.6597
22.5441
22.0174
22.0034
22.5001
23.5802
25.385
28.1112
31.9882
37.2449
44.0672
52.5514
62.6618
74.2026
86.814
100
-300
-300
-300
-300
-300
-300
-300
-300
-300
-300
-300
-300
-300
-300
-300
-300
-300
-300
-300
-300
-300
-300
-300
-300
100
86.814
74.2026
62.6619
52.5516
44.0676
37.2457
31.9895
28.1132
25.3879
23.5843
22.5055
22.0103
22.0259
22.5543
23.6714
25.5208
28.2996
32.2339
37.5457
44.4098
52.9087
62.9938
74.4619
86.957
100
100
86.9538
74.4556
62.9849
52.8976
44.397
37.5319
32.2195
28.285
25.5061
23.6562
22.5375
22.0055
21.983
22.4667
23.5276
25.306
27.9984
31.8357
37.0511
43.8381
52.3036
62.4236
74.011
86.7062
100
-300
-300
-300
-300
-300
-300
-300
-300
-300
-300
-300
-300
-300
-300
-300
-300
-300
-300
-300
-300
-300
-300
-300
-300
100
86.7062
74.011
62.4236
52.3037
43.8383
37.0515
31.8363
27.9993
25.3073
23.5295
22.4692
21.9862
22.0094
22.5421
23.6615
25.512
28.2912
32.2259
37.5381
44.4028
52.9027
62.989
74.4585
86.9553
100
100
86.9538
74.4556
62.9848
52.8975
44.3969
37.5316
32.2189
28.2837
25.5035
23.6511
22.528
21.9886
21.9538
22.4182
23.4505
25.189
27.8291
31.6035
36.751
43.4762
51.9036
62.0302
73.6875
86.5208
100
-300
-300
-300
-300
-300
-300
-300
-300
-300
-300
-300
-300
-300
-300
-300
-300
-300
-300
-300
-300
-300
-300
-300
-300
100
86.5208
73.6875
62.0302
51.9036
43.4763
36.7511
31.6038
27.8296
25.1896
23.4514
22.4192
21.9552
21.9903
22.5301
23.6534
25.5061
28.2864
32.2217
37.5343
44.3994
52.8998
62.9867
74.4569
86.9544
100
100
86.9538
74.4556
62.9848
52.8974
44.3967
37.5312
32.2181
28.2819
25.5
23.6442
22.5152
21.9653
21.9134
22.3507
23.3423
25.0228
27.5853
31.2633
36.3024
42.9225
51.2746
61.3921
73.1457
86.2016
100
-300
-300
-300
-300
-300
-300
-300
-300
-300
-300
-300
-300
-300
-300
-300
-300
-300
-300
-300
-300
-300
-300
-300
-300
100
86.2016
73.1457
61.3921
51.2746
42.9226
36.3024
31.2635
27.5855
25.023
23.3427
22.3511
21.914
21.9661
22.5161
23.6453
25.5011
28.2831
32.2193
37.5324
44.3978
52.8984
62.9856
74.4562
86.9541
100
100
86.9538
74.4556
62.9848
52.8974
44.3965
37.5307
32.217
28.2797
25.4955
23.6354
22.4985
21.935
21.8602
22.261
23.1971
24.7969
27.249
30.7854
35.6576
42.1041
50.3121
60.3747
72.2403
85.6428
100
-300
-300
-300
-300
-300
-300
-300
-300
-300
-300
-300
-300
-300
-300
-300
-300
-300
-300
-300
-300
-300
-300
-300
-300
100
85.6428
72.2403
60.3747
50.3121
42.1041
35.6576
30.7854
27.2491
24.797
23.1972
22.2612
21.8604
21.9353
22.4988
23.6358
25.4959
28.2802
32.2175
37.5312
44.3969
52.8978
62.9851
74.4558
86.9539
100
100
86.9538
74.4556
62.9847
52.8972
44.3962
37.5301
32.2157
28.2769
25.4899
23.6244
22.4777
21.8971
21.7934
22.1474
23.0112
24.5042
26.8064
30.1441
34.7704
40.9408
48.8849
58.7805
70.7195
84.6258
100
-300
-300
-300
-300
-300
-300
-300
-300
-300
-300
-300
-300
-300
-300
-300
-300
-300
-300
-300
-300
-300
-300
-300
-300
100
84.6258
70.7195
58.7805
48.8849
40.9408
34.7705
30.1441
26.8064
24.5043
23.0112
22.1475
21.7935
21.8972
22.4779
23.6246
25.4901
28.2771
32.2159
37.5303
44.3964
52.8974
62.9849
74.4557
86.9538
100
100
86.9538
74.4556
62.9847
52.8971
44.3959
37.5294
32.2142
28.2737
25.4834
23.6116
22.4532
21.852
21.7134
22.0106
22.785
24.1439
26.2532
29.3266
33.61
39.3642
46.8523
56.3433
68.1447
82.6395
100
-300
-300
-300
-300
-300
-300
-300
-300
-300
-300
-300
-300
-300
-300
-300
-300
-300
-300
-300
-300
-300
-300
-300
-300
100
82.6395
68.1447
56.3433
46.8523
39.3642
33.61
29.3266
26.2532
24.1439
22.785
22.0106
21.7135
21.8521
22.4533
23.6116
25.4834
28.2738
32.2142
37.5295
44.396
52.8972
62.9847
74.4556
86.9538
100
100
86.9537
74.4555
62.9846
52.897
44.3956
37.5287
32.2125
28.2702
25.4761
23.5972
22.4257
21.8012
21.6226
21.8539
22.524
23.7238
25.5996
28.3436
32.1803
37.3534
44.1206
52.7805
63.8023
78.3115
100
100
100
100
100
100
100
100
100
100
100
100
100
100
100
100
100
100
100
100
100
100
100
100
100
100
78.3115
63.8023
52.7805
44.1206
37.3534
32.1803
28.3436
25.5996
23.7238
22.524
21.8539
21.6226
21.8012
22.4257
23.5972
25.4761
28.2702
32.2125
37.5287
44.3956
52.897
62.9846
74.4556
86.9538
100
100
86.9538
74.4555
62.9846
52.8969
44.3953
37.5279
32.2108
28.2665
25.4684
23.5819
22.3963
21.7466
21.5247
21.6841
22.2392
23.2614
24.8728
27.2357
30.5394
34.9835
40.7607
48.042
56.9495
67.4133
78.3115
82.6395
84.6258
85.6428
86.2016
86.5208
86.7062
86.814
86.8762
86.9114
86.9308
86.9408
86.9451
86.9451
86.9408
86.9308
86.9114
86.8762
86.814
86.7062
86.5208
86.2016
85.6428
84.6258
82.6395
78.3115
67.4133
56.9495
48.042
40.7607
34.9835
30.5394
27.2357
24.8728
23.2614
22.2392
21.6841
21.5247
21.7466
22.3963
23.5819
25.4684
28.2665
32.2108
37.5279
44.3953
52.8969
62.9846
74.4556
86.9538
100
100
86.9538
74.4556
62.9846
52.8968
44.395
37.5272
32.2091
28.2628
25.4607
23.5664
22.3665
21.691
21.4246
21.5098
21.9454
22.7819
24.1143
26.071
28.7989
32.4434
37.1208
42.8784
49.6216
56.9495
63.8023
68.1447
70.7195
72.2403
73.1457
73.6875
74.011
74.2025
74.3142
74.3781
74.4135
74.4318
74.4396
74.4396
74.4318
74.4135
74.3781
74.3142
74.2025
74.011
73.6875
73.1457
72.2403
70.7195
68.1447
63.8023
56.9495
49.6216
42.8784
37.1208
32.4434
28.7989
26.071
24.1143
22.7819
21.9454
21.5098
21.4246
21.691
22.3665
23.5665
25.4607
28.2628
32.2091
37.5272
44.395
52.8968
62.9846
74.4556
86.9538
100
100
86.9538
74.4557
62.9848
52.8969
44.395
37.5268
32.2078
28.2595
25.4536
23.5518
22.338
21.6375
21.3278
21.3406
21.6593
22.3137
23.3716
24.9278
27.0885
29.9503
33.5715
37.9325
42.8784
48.042
52.7805
56.3433
58.7805
60.3747
61.3921
62.0301
62.4235
62.6617
62.8028
62.8844
62.9299
62.9537
62.9638
62.9638
62.9537
62.9299
62.8844
62.8028
62.6617
62.4235
62.0301
61.3921
60.3747
58.7805
56.3433
52.7805
48.042
42.8784
37.9325
33.5715
29.9503
27.0885
24.9278
23.3716
22.3137
21.6593
21.3406
21.3278
21.6375
22.338
23.5518
25.4536
28.2595
32.2078
37.5268
44.395
52.8969
62.9848
74.4557
86.9538
100
100
86.954
74.456
62.9852
52.8974
44.3954
37.5269
32.2071
28.2571
25.4476
23.5391
22.3124
21.589
21.2393
21.1853
21.3961
21.8825
22.6875
23.8761
25.5201
27.6793
30.3773
33.5715
37.1208
40.7607
44.1206
46.8523
48.8849
50.3121
51.2745
51.9035
52.3035
52.5512
52.7006
52.788
52.8373
52.8632
52.8743
52.8743
52.8632
52.8373
52.788
52.7006
52.5512
52.3035
51.9035
51.2745
50.3121
48.8849
46.8523
44.1206
40.7607
37.1208
33.5715
30.3773
27.6793
25.5201
23.8761
22.6875
21.8825
21.3961
21.1853
21.2393
21.589
22.3124
23.5391
25.4476
28.2571
32.2071
37.5269
44.3954
52.8974
62.9852
74.456
86.954
100
100
86.9544
74.4568
62.9863
52.8988
44.3968
37.5282
32.2078
28.2564
25.4439
23.5293
22.2915
21.548
21.1635
21.051
21.1677
21.5077
22.0934
22.9651
24.1683
25.7378
27.6793
29.9503
32.4434
34.9835
37.3534
39.3642
40.9408
42.1041
42.9225
43.4762
43.838
44.067
44.2074
44.2907
44.3382
44.3634
44.3741
44.3741
44.3634
44.3382
44.2907
44.2074
44.067
43.838
43.4762
42.9225
42.1041
40.9408
39.3642
37.3534
34.9835
32.4434
29.9503
27.6793
25.7378
24.1683
22.9651
22.0934
21.5077
21.1677
21.051
21.1635
21.548
22.2915
23.5293
25.4439
28.2564
32.2078
37.5282
44.3968
52.8988
62.9863
74.4568
86.9544
100
100
86.9553
74.4585
62.9887
52.9018
44.4003
37.5318
32.2112
28.2587
25.4438
23.5244
22.2774
21.5171
21.1037
20.9428
20.9816
21.2008
21.6063
22.2199
23.0676
24.1683
25.5201
27.0885
28.7989
30.5394
32.1803
33.61
34.7704
35.6576
36.3023
36.7509
37.0511
37.2448
37.3654
37.4379
37.4797
37.502
37.5115
37.5115
37.502
37.4797
37.4379
37.3654
37.2448
37.0511
36.7509
36.3023
35.6576
34.7704
33.61
32.1803
30.5394
28.7989
27.0885
25.5201
24.1683
23.0676
22.2199
21.6063
21.2008
20.9816
20.9428
21.1037
21.5171
22.2774
23.5244
25.4438
28.2587
32.2112
37.5318
44.4003
52.9018
62.9887
74.4585
86.9553
100
100
86.9571
74.4621
62.994
52.9084
44.408
37.5403
32.2199
28.2669
25.4504
23.5273
22.273
21.4996
21.0633
20.8643
20.8417
20.9662
21.2313
21.6449
22.2199
22.9651
23.8761
24.9278
26.071
27.2357
28.3436
29.3266
30.1441
30.7854
31.2633
31.6035
31.8357
31.9881