# vtk DataFile Version 2.0
LBE two cylinders
ASCII
DATASET STRUCTURED_POINTS
DIMENSIONS 76 76 1
ASPECT_RATIO 1 1 1
ORIGIN 0 0 0
POINT_DATA 5776
SCALARS temp double 1
LOOKUP_TABLE default
100
100
100
100
100
100
100
100
100
100
100
100
100
100
100
100
100
100
100
100
100
100
100
100
100
100
-300
-300
-300
-300
-300
-300
-300
-300
-300
-300
-300
-300
-300
-300
100
100
100
100
100
100
100
100
100
100
100
100
100
100
100
100
100
100
100
100
100
100
100
100
100
100
-300
-300
-300
-300
-300
-300
-300
-300
-300
-300
100
96.4208
93.0929
90.2149
87.8985
86.1615
84.9467
84.153
83.668
83.3905
83.2422
83.1694
83.1403
83.1403
83.1694
83.2422
83.3905
83.668
84.153
84.9467
86.1615
87.8985
90.2149
93.0929
96.4208
100
-300
-300
-300
-300
-300
-300
-300
-300
-300
-300
-300
-300
-300
-300
100
96.4208
93.0929
90.2149
87.8985
86.1615
84.9467
84.153
83.668
83.3905
83.2422
83.1694
83.1403
83.1403
83.1694
83.2422
83.3905
83.668
84.153
84.9467
86.1615
87.8985
90.2149
93.0929
96.4208
100
-300
-300
-300
-300
-300
-300
-300
-300
-300
-300
100
93.0929
86.6708
81.1171
76.6472
73.2956
70.9516
69.4204
68.4847
67.9495
67.6633
67.5229
67.4667
67.4667
67.5229
67.6633
67.9495
68.4847
69.4204
70.9516
73.2956
76.6472
81.1171
86.6708
93.0929
100
-300
-300
-300
-300
-300
-300
-300
-300
-300
-300
-300
-300
-300
-300
100
93.0929
86.6708
81.1171
76.6472
73.2956
70.9516
69.4204
68.4847
67.9495
67.6633
67.5229
67.4667
67.4667
67.5229
67.6633
67.9495
68.4847
69.4204
70.9516
73.2956
76.6472
81.1171
86.6708
93.0929
100
-300
-300
-300
-300
-300
-300
-300
-300
-300
-300
100
90.2149
81.1171
73.2499
66.9181
62.1708
58.8509
56.6825
55.3576
54.5997
54.1946
53.9959
53.9164
53.9164
53.9959
54.1946
54.5997
55.3576
56.6825
58.8509
62.1708
66.9181
73.2499
81.1171
90.2149
100
-300
-300
-300
-300
-300
-300
-300
-300
-300
-300
-300
-300
-300
-300
100
90.2149
81.1171
73.2499
66.9181
62.1708
58.851
56.6825
55.3576
54.5997
54.1946
53.9959
53.9164
53.9164
53.9959
54.1946
54.5997
55.3576
56.6825
58.8509
62.1708
66.9181
73.2499
81.1171
90.2149
100
-300
-300
-300
-300
-300
-300
-300
-300
-300
-300
100
87.8985
76.6472
66.9181
59.0885
53.2185
49.114
46.4333
44.7957
43.8591
43.3585
43.113
43.0148
43.0148
43.113
43.3585
43.8591
44.7957
46.4333
49.114
53.2185
59.0885
66.9181
76.6472
87.8985
100
-300
-300
-300
-300
-300
-300
-300
-300
-300
-300
-300
-300
-300
-300
100
87.8985
76.6472
66.9181
59.0885
53.2185
49.114
46.4333
44.7957
43.8591
43.3585
43.113
43.0148
43.0148
43.113
43.3585
43.8591
44.7957
46.4333
49.114
53.2185
59.0885
66.9181
76.6472
87.8985
100
-300
-300
-300
-300
-300
-300
-300
-300
-300
-300
100
86.1615
73.2956
62.1708
53.2185
46.5076
41.8154
38.7514
36.8799
35.8096
35.2377
34.9573
34.8451
34.8451
34.9573
35.2377
35.8096
36.8799
38.7514
41.8154
46.5076
53.2185
62.1708
73.2956
86.1615
100
-300
-300
-300
-300
-300
-300
-300
-300
-300
-300
-300
-300
-300
-300
100
86.1615
73.2956
62.1708
53.2185
46.5076
41.8155
38.7514
36.8799
35.8096
35.2377
34.9573
34.8451
34.8451
34.9573
35.2377
35.8096
36.8799
38.7514
41.8154
46.5076
53.2185
62.1708
73.2956
86.1615
100
-300
-300
-300
-300
-300
-300
-300
-300
-300
-300
100
84.9466
70.9515
58.8509
49.1139
41.8154
36.7129
33.3813
31.3467
30.1833
29.5618
29.257
29.1352
29.1352
29.257
29.5618
30.1833
31.3467
33.3813
36.7129
41.8154
49.1139
58.8509
70.9515
84.9466
100
-300
-300
-300
-300
-300
-300
-300
-300
-300
-300
-300
-300
-300
-300
100
84.9467
70.9516
58.8509
49.114
41.8155
36.713
33.3814
31.3468
30.1834
29.5618
29.2571
29.1352
29.1352
29.257
29.5618
30.1833
31.3467
33.3813
36.7129
41.8154
49.1139
58.8509
70.9515
84.9466
100
-300
-300
-300
-300
-300
-300
-300
-300
-300
-300
100
84.1529
69.4202
56.6823
46.4331
38.7512
33.3812
29.8752
27.7344
26.5105
25.8566
25.5361
25.408
25.408
25.5361
25.8566
26.5105
27.7344
29.8752
33.3812
38.7512
46.4331
56.6823
69.4202
84.1529
100
-300
-300
-300
-300
-300
-300
-300
-300
-300
-300
-300
-300
-300
-300
100
84.153
69.4204
56.6825
46.4333
38.7514
33.3814
29.8755
27.7346
26.5107
25.8568
25.5362
25.4081
25.408
25.5362
25.8567
26.5105
27.7344
29.8752
33.3812
38.7512
46.4331
56.6823
69.4202
84.1529
100
-300
-300
-300
-300
-300
-300
-300
-300
-300
-300
100
83.6678
68.4844
55.3571
44.7951
36.8791
31.346
27.7338
25.5283
24.2675
23.5941
23.264
23.132
23.132
23.264
23.5941
24.2675
25.5283
27.7338
31.346
36.8791
44.7951
55.3571
68.4844
83.6678
100
-300
-300
-300
-300
-300
-300
-300
-300
-300
-300
-300
-300
-300
-300
100
83.668
68.4847
55.3576
44.7957
36.8798
31.3467
27.7345
25.529
24.2682
23.5947
23.2644
23.1324
23.1323
23.2642
23.5942
24.2676
25.5283
27.7338
31.346
36.8791
44.7951
55.3571
68.4844
83.6678
100
-300
-300
-300
-300
-300
-300
-300
-300
-300
-300
100
83.39
67.9483
54.5982
43.8572
35.8074
30.181
26.5082
24.2658
22.9841
22.2995
21.964
21.8298
21.8298
21.964
22.2995
22.9841
24.2658
26.5082
30.181
35.8074
43.8572
54.5982
67.9483
83.39
100
-300
-300
-300
-300
-300
-300
-300
-300
-300
-300
-300
-300
-300
-300
100
83.3905
67.9494
54.5997
43.8591
35.8095
30.1832
26.5104
24.2679
22.986
22.3011
21.9653
21.8308
21.8306
21.9645
22.2998
22.9843
24.2659
26.5083
30.181
35.8074
43.8572
54.5981
67.9483
83.39
100
-300
-300
-300
-300
-300
-300
-300
-300
-300
-300
100
83.2405
67.6601
54.1902
43.353
35.2314
29.555
25.8497
23.5876
22.2947
21.6041
21.2657
21.1304
21.1304
21.2657
21.6041
22.2947
23.5876
25.8497
29.555
35.2314
43.353
54.1902
67.6601
83.2405
100
-300
-300
-300
-300
-300
-300
-300
-300
-300
-300
-300
-300
-300
-300
100
83.2422
67.6632
54.1945
43.3584
35.2374
29.5613
25.8559
23.5935
22.3
21.6087
21.2694
21.1333
21.1325
21.2671
21.6051
22.2952
23.5879
25.8499
29.5551
35.2314
43.353
54.1901
67.6601
83.2405
100
-300
-300
-300
-300
-300
-300
-300
-300
-300
-300
100
83.165
67.5144
53.9839
43.0982
34.9403
29.2387
25.5171
23.245
21.9464
21.2529
20.913
20.7771
20.7771
20.913
21.2529
21.9464
23.245
25.5171
29.2387
34.9403
43.0982
53.9839
67.5144
83.165
100
-300
-300
-300
-300
-300
-300
-300
-300
-300
-300
-300
-300
-300
-300
100
83.1694
67.5228
53.9957
43.1125
34.9564
29.2555
25.5338
23.2609
21.9608
21.2653
20.9231
20.785
20.7829
20.9169
21.2554
21.9479
23.2459
25.5175
29.2389
34.9403
43.0981
53.9838
67.5143
83.1649
100
-300
-300
-300
-300
-300
-300
-300
-300
-300
-300
100
83.129
67.445
53.8856
42.9768
34.8017
29.0881
25.3587
23.0819
21.7807
21.0857
20.7452
20.609
20.609
20.7452
21.0857
21.7807
23.0819
25.3587
29.0881
34.8017
42.9768
53.8856
67.445
83.129
100
-300
-300
-300
-300
-300
-300
-300
-300
-300
-300
-300
-300
-300
-300
100
83.1402
67.4665
53.9158
43.0136
34.8429
29.1313
25.4017
23.1228
21.8177
21.1177
20.7713
20.6293
20.6239
20.7553
21.0923
21.7846
23.0841
25.3597
29.0885
34.8017
42.9765
53.8853
67.4446
83.1288
100
-300
-300
-300
-300
-300
-300
-300
-300
-300
-300
100
83.1128
67.4137
53.8414
42.9222
34.7394
29.0204
25.2875
23.0087
21.7062
21.0107
20.6698
20.5335
20.5335
20.6698
21.0107
21.7062
23.0087
25.2875
29.0204
34.7394
42.9222
53.8414
67.4137
83.1128
100
-300
-300
-300
-300
-300
-300
-300
-300
-300
-300
-300
-300
-300
-300
100
83.14
67.4661
53.915
43.012
34.8398
29.1258
25.3926
23.1087
21.797
21.0891
20.7341
20.5834
20.57
20.6948
21.0268
21.716
23.014
25.2901
29.0213
34.7392
42.9215
53.8404
67.4129
83.1123
100
-300
-300
-300
-300
-300
-300
-300
-300
-300
-300
100
83.1059
67.4004
53.8226
42.899
34.7129
28.9917
25.2573
22.9776
21.6746
20.9788
20.6378
20.5015
20.5015
20.6378
20.9788
21.6746
22.9776
25.2573
28.9917
34.7129
42.899
53.8226
67.4004
83.1059
100
-300
-300
-300
-300
-300
-300
-300
-300
-300
-300
-300
-300
-300
-300
100
83.1688
67.5214
53.9927
43.1067
34.9454
29.236
25.5014
23.2101
21.8861
21.1619
20.7881
20.6181
20.5867
20.6963
21.0165
21.6973
22.99
25.2631
28.9934
34.7122
42.8969
53.82
67.3981
83.1045
100
-300
-300
-300
-300
-300
-300
-300
-300
-300
-300
100
83.1031
67.3951
53.8151
42.8897
34.7023
28.9801
25.2452
22.9651
21.6619
20.966
20.6249
20.4886
20.4886
20.6249
20.966
21.6619
22.9651
25.2452
28.9801
34.7023
42.8897
53.8151
67.3951
83.1031
100
-300
-300
-300
-300
-300
-300
-300
-300
-300
-300
-300
-300
-300
-300
100
83.241
67.6603
54.1881
43.3454
35.2129
29.5177
25.783
23.4786
22.1298
21.3716
20.9582
20.7473
20.6777
20.7547
21.0495
21.7119
22.9923
25.2577
28.9834
34.6998
42.8839
53.8081
67.389
83.0995
100
-300
-300
-300
-300
-300
-300
-300
-300
-300
-300
100
83.1021
67.3931
53.8122
42.8861
34.6982
28.9757
25.2405
22.9603
21.6571
20.9611
20.62
20.4837
20.4837
20.62
20.9611
21.6571
22.9603
25.2405
28.9757
34.6982
42.8861
53.8122
67.3931
83.1021
100
-300
-300
-300
-300
-300
-300
-300
-300
-300
-300
-300
-300
-300
-300
100
83.3883
67.9437
54.5871
43.8337
35.7612
30.0967
26.3643
24.0357
22.639
21.8139
21.3216
21.0282
20.8814
20.8928
21.1362
21.7615
23.0167
25.2657
28.981
34.691
42.8715
53.7949
67.3779
83.0932
100
-300
-300
-300
-300
-300
-300
-300
-300
-300
-300
100
83.1017
67.3923
53.8111
42.8848
34.6967
28.9741
25.2388
22.9585
21.6553
20.9593
20.6182
20.4819
20.4819
20.6182
20.9593
21.6553
22.9585
25.2388
28.9741
34.6967
42.8848
53.8111
67.3923
83.1017
100
-300
-300
-300
-300
-300
-300
-300
-300
-300
-300
-300
-300
-300
-300
100
83.6641
68.4745
55.3351
44.7499
36.7921
31.1878
27.4633
25.093
23.6094
22.6599
22.0184
21.5684
21.2745
21.1607
21.3066
21.8616
23.0689
25.2864
28.9811
34.6774
42.8497
53.7702
67.3563
83.0805
100
-300
-300
-300
-300
-300
-300
-300
-300
-300
-300
100
83.1015
67.3921
53.8108
42.8844
34.6962
28.9735
25.2383
22.958
21.6547
20.9587
20.6176
20.4813
20.4813
20.6176
20.9587
21.6547
22.958
25.2383
28.9735
34.6962
42.8844
53.8108
67.3921
83.1015
100
-300
-300
-300
-300
-300
-300
-300
-300
-300
-300
-300
-300
-300
-300
100
84.1466
69.4035
56.6453
46.3571
38.6038
33.111
29.4077
26.9718
25.3411
24.1741
23.267
22.5353
21.9763
21.6378
21.6095
22.0391
23.1611
25.3219
28.9784
34.6485
42.8039
53.7179
67.31
83.0532
100
-300
-300
-300
-300
-300
-300
-300
-300
-300
-300
100
83.1015
67.392
53.8106
42.8842
34.6961
28.9734
25.2381
22.9578
21.6545
20.9585
20.6174
20.4811
20.4811
20.6174
20.9585
21.6545
22.9578
25.2381
28.9734
34.6961
42.8842
53.8106
67.392
83.1015
100
-300
-300
-300
-300
-300
-300
-300
-300
-300
-300
-300
-300
-300
-300
100
84.9372
70.9264
58.7949
48.9978
41.5875
36.2892
32.636
30.1088
28.2484
26.7254
25.3705
24.1587
23.1487
22.4302
22.1094
22.3296
23.3091
25.3741
28.9642
34.5863
42.709
53.6092
67.2128
82.995
100
-300
-300
-300
-300
-300
-300
-300
-300
-300
-300
100
83.1015
67.3919
53.8106
42.8842
34.696
28.9733
25.238
22.9577
21.6544
20.9584
20.6173
20.481
20.481
20.6173
20.9584
21.6544
22.9577
25.238
28.9733
34.696
42.8842
53.8106
67.3919
83.1015
100
-300
-300
-300
-300
-300
-300
-300
-300
-300
-300
-300
-300
-300
-300
100
86.1488
73.2615
62.0942
53.0578
46.1876
41.2103
37.6649
35.0324
32.8463
30.779
28.7071
26.7174
24.9808
23.6573
22.8766
22.7704
23.5276
25.441
28.9219
34.4602
42.5213
53.3921
67.015
82.8746
100
-300
-300
-300
-300
-300
-300
-300
-300
-300
-300
100
83.1015
67.3919
53.8106
42.8842
34.696
28.9733
25.238
22.9577
21.6544
20.9584
20.6173
20.481
20.481
20.6173
20.9584
21.6544
22.9577
25.238
28.9733
34.696
42.8842
53.8106
67.3919
83.1015
100
-300
-300
-300
-300
-300
-300
-300
-300
-300
-300
-300
-300
-300
-300
100
87.8832
76.6061
66.8249
58.8903
52.8177
48.3403
45.0088
42.2984
39.7082
36.8696
33.695
30.4969
27.6503
25.423
23.9677
23.3882
23.8231
25.5121
28.8232
34.2211
42.1692
52.9771
66.6262
82.6312
100
-300
-300
-300
-300
-300
-300
-300
-300
-300
-300
100
83.1015
67.3919
53.8106
42.8842
34.696
28.9733
25.238
22.9577
21.6544
20.9584
20.6173
20.481
20.481
20.6173
20.9584
21.6544
22.9577
25.238
28.9733
34.696
42.8842
53.8106
67.3919
83.1015
100
-300
-300
-300
-300
-300
-300
-300
-300
-300
-300
-300
-300
-300
-300
100
90.1991
81.0743
73.1518
66.7069
61.7361
57.9922
55.0528
52.3858
49.4069
45.5808
40.7317
35.7105
31.2557
27.7673
25.3958
24.1829
24.1856
25.565
28.6267
33.7991
41.5452
52.2177
65.8826
82.1435
100
-300
-300
-300
-300
-300
-300
-300
-300
-300
-300
100
83.1015
67.3919
53.8106
42.8842
34.696
28.9733
25.238
22.9577
21.6544
20.9584
20.6173
20.481
20.481
20.6173
20.9584
21.6544
22.9577
25.238
28.9733
34.696
42.8842
53.8106
67.3919
83.1015
100
-300
-300
-300
-300
-300
-300
-300
-300
-300
-300
-300
-300
-300
-300
100
93.0796
86.6345
81.0332
76.4642
72.9122
70.1757
67.896
65.5632
62.4672
57.6253
50.102
42.3666
35.7158
30.6065
27.0991
25.1126
24.5833
25.5659
28.2821
33.1084
40.5043
50.8896
64.4918
81.1541
100
-300
-300
-300
-300
-300
-300
-300
-300
-300
-300
100
83.1015
67.3919
53.8106
42.8842
34.696
28.9733
25.238
22.9577
21.6544
20.9584
20.6173
20.481
20.481
20.6173
20.9584
21.6544
22.9577
25.238
28.9733
34.696
42.8842
53.8106
67.3919
83.1015
100
-300
-300
-300
-300
-300
-300
-300
-300
-300
-300
-300
-300
-300
-300
100
96.4131
93.0718
90.1659
87.7906
85.9324
84.4728
83.1896
81.7125
79.3347
74.3567
61.7518
50.0315
40.647
33.684
28.9237
26.0897
24.9653
25.4779
27.7446
32.0685
38.8855
48.6845
61.9394
79.0589
100
-300
-300
-300
-300
-300
-300
-300
-300
-300
-300
100
83.1015
67.3919
53.8106
42.8842
34.696
28.9733
25.238
22.9577
21.6544
20.9584
20.6173
20.481
20.481
20.6173
20.9584
21.6544
22.9577
25.238
28.9733
34.696
42.8842
53.8106
67.3919
83.1015
100
-300
-300
-300
-300
-300
-300
-300
-300
-300
-300
-300
-300
-300
-300
100
100
100
100
100
100
100
100
100
100
100
74.2422
57.3959
45.2806
36.5821
30.6481
27
25.2762
25.2762
27
30.6481
36.5821
45.2806
57.3959
74.2422
100
100
100
100
100
100
100
100
100
100
100
100
83.1015
67.3919
53.8106
42.8842
34.696
28.9733
25.238
22.9577
21.6544
20.9584
20.6173
20.481
20.481
20.6173
20.9584
21.6544
22.9577
25.238
28.9733
34.696
42.8842
53.8106
67.3919
83.1015
100
-300
-300
-300
-300
-300
-300
-300
-300
-300
-300
-300
-300
-300
-300
-300
-300
-300
-300
-300
-300
-300
-300
-300
-300
100
79.0589
61.9394
48.6845
38.8855
32.0685
27.7446
25.4779
24.9653
26.0897
28.9237
33.684
40.647
50.0315
61.7518
74.3567
79.3347
81.7125
83.1896
84.4728
85.9324
87.7906
90.1659
93.0718
96.4131
100
100
83.1015
67.3919
53.8106
42.8842
34.696
28.9733
25.238
22.9577
21.6544
20.9584
20.6173
20.481
20.481
20.6173
20.9584
21.6544
22.9577
25.238
28.9733
34.696
42.8842
53.8106
67.3919
83.1015
100
-300
-300
-300
-300
-300
-300
-300
-300
-300
-300
-300
-300
-300
-300
-300
-300
-300
-300
-300
-300
-300
-300
-300
-300
100
81.1541
64.4918
50.8896
40.5043
33.1084
28.2821
25.5659
24.5833
25.1126
27.0991
30.6065
35.7158
42.3666
50.102
57.6253
62.4672
65.5632
67.896
70.1757
72.9122
76.4642
81.0332
86.6345
93.0796
100
100
83.1015
67.3919
53.8106
42.8842
34.696
28.9733
25.238
22.9577
21.6544
20.9584
20.6173
20.481
20.481
20.6173
20.9584
21.6544
22.9577
25.238
28.9733
34.696
42.8842
53.8106
67.3919
83.1015
100
-300
-300
-300
-300
-300
-300
-300
-300
-300
-300
-300
-300
-300
-300
-300
-300
-300
-300
-300
-300
-300
-300
-300
-300
100
82.1435
65.8826
52.2177
41.5452
33.7991
28.6267
25.565
24.1856
24.1829
25.3958
27.7673
31.2557
35.7105
40.7317
45.5808
49.4069
52.3858
55.0528
57.9922
61.7361
66.7069
73.1518
81.0743
90.1991
100
100
83.1015
67.3919
53.8106
42.8842
34.696
28.9733
25.238
22.9577
21.6544
20.9584
20.6173
20.481
20.481
20.6173
20.9584
21.6544
22.9577
25.238
28.9733
34.696
42.8842
53.8106
67.3919
83.1015
100
-300
-300
-300
-300
-300
-300
-300
-300
-300
-300
-300
-300
-300
-300
-300
-300
-300
-300
-300
-300
-300
-300
-300
-300
100
82.6312
66.6262
52.9771
42.1692
34.2211
28.8232
25.5121
23.8231
23.3882
23.9677
25.423
27.6503
30.4969
33.695
36.8696
39.7082
42.2984
45.0088
48.3403
52.8177
58.8903
66.8249
76.6061
87.8832
100
100
83.1015
67.3919
53.8106
42.8842
34.696
28.9733
25.238
22.9577
21.6544
20.9584
20.6173
20.481
20.481
20.6173
20.9584
21.6544
22.9577
25.238
28.9733
34.696
42.8842
53.8106
67.3919
83.1015
100
-300
-300
-300
-300
-300
-300
-300
-300
-300
-300
-300
-300
-300
-300
-300
-300
-300
-300
-300
-300
-300
-300
-300
-300
100
82.8746
67.015
53.392
42.5213
34.4601
28.9219
25.441
23.5276
22.7704
22.8766
23.6573
24.9807
26.7174
28.7071
30.7789
32.8462
35.0324
37.6648
41.2102
46.1876
53.0577
62.0942
73.2615
86.1488
100
100
83.1015
67.3919
53.8106
42.8842
34.696
28.9733
25.238
22.9577
21.6544
20.9584
20.6173
20.481
20.481
20.6173
20.9584
21.6544
22.9577
25.238
28.9733
34.696
42.8842
53.8106
67.3919
83.1015
100
-300
-300
-300
-300
-300
-300
-300
-300
-300
-300
-300
-300
-300
-300
-300
-300
-300
-300
-300
-300
-300
-300
-300
-300
100
82.9949
67.2127
53.6091
42.709
34.5862
28.9641
25.374
23.309
22.3295
22.1093
22.4301
23.1486
24.1587
25.3704
26.7253
28.2483
30.1087
32.6359
36.2891
41.5874
48.9977
58.7948
70.9263
84.9372
100
100
83.1015
67.3919
53.8106
42.8842
34.696
28.9733
25.238
22.9577
21.6544
20.9584
20.6173
20.481
20.481
20.6173
20.9584
21.6544
22.9577
25.238
28.9733
34.696
42.8842
53.8106
67.3919
83.1015
100
-300
-300
-300
-300
-300
-300
-300
-300
-300
-300
-300
-300
-300
-300
-300
-300
-300
-300
-300
-300
-300
-300
-300
-300
100
83.0531
67.3099
53.7178
42.8037
34.6482
28.9781
25.3216
23.1608
22.0388
21.6093
21.6375
21.976
22.535
23.2667
24.1739
25.3408
26.9716
29.4074
33.1107
38.6035
46.3569
56.6452
69.4034
84.1466
100
100
83.1015
67.3919
53.8106
42.8842
34.696
28.9733
25.238
22.9577
21.6544
20.9584
20.6173
20.481
20.481
20.6173
20.9584
21.6544
22.9577
25.238
28.9733
34.696
42.8842
53.8106
67.3919
83.1015
100
-300
-300
-300
-300
-300
-300
-300
-300
-300
-300
-300
-300
-300
-300
-300
-300
-300
-300
-300
-300
-300
-300
-300
-300
100
83.0803
67.3559
53.7697
42.849
34.6766
28.9802
25.2856
23.068
21.8607
21.3057
21.1598
21.2736
21.5675
22.0175
22.659
23.6085
25.0921
27.4624
31.187
36.7913
44.7493
55.3346
68.4741
83.6639
100
100
83.1015
67.3919
53.8106
42.8842
34.696
28.9733
25.238
22.9577
21.6544
20.9584
20.6173
20.481
20.481
20.6173
20.9584
21.6544
22.9577
25.238
28.9733
34.696
42.8842
53.8106
67.3919
83.1015
100
-300
-300
-300
-300
-300
-300
-300
-300
-300
-300
-300
-300
-300
-300
-300
-300
-300
-300
-300
-300
-300
-300
-300
-300
100
83.0926
67.3767
53.7933
42.8696
34.6887
28.9786
25.2632
23.0141
21.7589
21.1335
20.8901
20.8787
21.0255
21.3189
21.8112
22.6364
24.0331
26.3617
30.0943
35.759
43.8317
54.5855
67.9425
83.3878
100
100
83.1015
67.3919
53.8106
42.8842
34.696
28.9733
25.238
22.9577
21.6544
20.9584
20.6173
20.481
20.481
20.6173
20.9584
21.6544
22.9577
25.238
28.9733
34.6959
42.8841
53.8105
67.3919
83.1015
100
-300
-300
-300
-300
-300
-300
-300
-300
-300
-300
-300
-300
-300
-300
-300
-300
-300
-300
-300
-300
-300
-300
-300
-300
100
83.0979
67.3858
53.8036
42.8784
34.6935
28.9765
25.2505
22.9849
21.7044
21.0419
20.7471
20.6701
20.7397
20.9506
21.364
22.1223
23.4712
25.7758
29.5109
35.2066
43.3399
54.1836
67.6571
83.2394
100
100
83.1015
67.3919
53.8106
42.8842
34.696
28.9733
25.238
22.9577
21.6544
20.9584
20.6173
20.481
20.481
20.6173
20.9584
21.6544
22.9576
25.2379
28.9732
34.6959
42.884
53.8105
67.3918
83.1014
100
-300
-300
-300
-300
-300
-300
-300
-300
-300
-300
-300
-300
-300
-300
-300
-300
-300
-300
-300
-300
-300
-300
-300
-300
100
83.1
67.3895
53.8078
42.8819
34.6951
28.9749
25.2437
22.97
21.677
20.9961
20.6759
20.5662
20.5976
20.7676
21.1415
21.8659
23.1902
25.482
29.2176
34.9284
43.0918
53.9807
67.5129
83.1644
100
100
83.1015
67.3919
53.8106
42.8842
34.696
28.9733
25.238
22.9577
21.6544
20.9584
20.6173
20.481
20.481
20.6173
20.9584
21.6543
22.9576
25.2378
28.973
34.6956
42.8838
53.8102
67.3916
83.1013
100
-300
-300
-300
-300
-300
-300
-300
-300
-300
-300
-300
-300
-300
-300
-300
-300
-300
-300
-300
-300
-300
-300
-300
-300
100
83.1008
67.3907
53.8092
42.883
34.6954
28.9739
25.2404
22.9629
21.6641
20.9745
20.6424
20.5174
20.5309
20.6816
21.0369
21.7452
23.0576
25.3431
29.0786
34.7963
42.9739
53.8841
67.4443
83.1287
100
100
83.1015
67.3919
53.8106
42.8842
34.696
28.9733
25.238
22.9577
21.6544
20.9584
20.6173
20.481
20.481
20.6173
20.9583
21.6542
22.9574
25.2375
28.9726
34.695
42.8831
53.8095
67.391
83.101
100
-300
-300
-300
-300
-300
-300
-300
-300
-300
-300
-300
-300
-300
-300
-300
-300
-300
-300
-300
-300
-300
-300
-300
-300
100
83.1008
67.3907
53.8091
42.8828
34.695
28.9729
25.2386
22.9596
21.6582
20.9649
20.6274
20.4958
20.5012
20.6435
20.9904
21.6914
22.9985
25.281
29.0164
34.7371
42.921
53.8408
67.4134
83.1127
100
100
83.1015
67.3919
53.8106
42.8842
34.696
28.9733
25.238
22.9577
21.6544
20.9584
20.6173
20.481
20.4809
20.6172
20.9582
21.654
22.9569
25.2367
28.9714
34.6935
42.8812
53.8076
67.3894
83.1001
100
-300
-300
-300
-300
-300
-300
-300
-300
-300
-300
-300
-300
-300
-300
-300
-300
-300
-300
-300
-300
-300
-300
-300
-300
100
83.1
67.3893
53.8075
42.8812
34.6935
28.9716
25.2371
22.9577
21.6555
20.9607
20.6211
20.4867
20.4888
20.6274
20.9708
21.6688
22.9735
25.2547
28.9901
34.712
42.8985
53.8224
67.4003
83.1059
100
100
83.1015
67.3919
53.8106
42.8842
34.696
28.9733
25.238
22.9577
21.6544
20.9584
20.6173
20.4809
20.4808
20.617
20.9578
21.6533
22.9557
25.2348
28.9686
34.6897
42.8767
53.8029
67.3855
83.0978
100
-300
-300
-300
-300
-300
-300
-300
-300
-300
-300
-300
-300
-300
-300
-300
-300
-300
-300
-300
-300
-300
-300
-300
-300
100
83.0978
67.3855
53.8029
42.8767
34.6897
28.9686
25.2349
22.956
21.6538
20.9587
20.6185
20.483
20.4838
20.621
20.963
21.6597
22.9635
25.2442
28.9795
34.7019
42.8895
53.815
67.3951
83.1031
100
100
83.1015
67.3919
53.8106
42.8842
34.696
28.9733
25.238
22.9577
21.6544
20.9584
20.6173
20.4808
20.4807
20.6166
20.957
21.6517
22.953
25.2303
28.9619
34.6808
42.866
53.7918
67.3761
83.0924
100
-300
-300
-300
-300
-300
-300
-300
-300
-300
-300
-300
-300
-300
-300
-300
-300
-300
-300
-300
-300
-300
-300
-300
-300
100
83.0924
67.3761
53.7918
42.866
34.6808
28.962
25.2304
22.9531
21.6519
20.9573
20.6171
20.4814
20.4819
20.6186
20.96
21.6563
22.9597
25.2402
28.9755
34.6981
42.8861
53.8121
67.393
83.1021
100
100
83.1015
67.3919
53.8106
42.8842
34.696
28.9733
25.238
22.9577
21.6544
20.9584
20.6172
20.4807
20.4803
20.6158
20.9553
21.6484
22.9471
25.2207
28.9474
34.6609
42.8419
53.7666
67.3547
83.0799
100
-300
-300
-300
-300
-300
-300
-300
-300
-300
-300
-300
-300
-300
-300
-300
-300
-300
-300
-300
-300
-300
-300
-300
-300
100
83.0799
67.3547
53.7666
42.8419
34.6609
28.9474
25.2207
22.9471
21.6485
20.9554
20.616
20.4805
20.481
20.6176
20.9589
21.655
22.9584
25.2387
28.974
34.6967
42.8848
53.8111
67.3923
83.1017
100
100
83.1015
67.3919
53.8106
42.8842
34.696
28.9733
25.238
22.9577
21.6544
20.9583
20.6171
20.4804
20.4795
20.6141
20.9518
21.6417
22.935
25.2007
28.917
34.619
42.7905
53.7121
67.3077
83.0523
100
-300
-300
-300
-300
-300
-300
-300
-300
-300
-300
-300
-300
-300
-300
-300
-300
-300
-300
-300
-300
-300
-300
-300
-300
100
83.0523
67.3077
53.7121
42.7905
34.619
28.917
25.2007
22.935
21.6417
20.9518
20.6142
20.4796
20.4805
20.6172
20.9585
21.6546
22.9579
25.2382
28.9735
34.6962
42.8844
53.8108
67.3921
83.1015
100
100
83.1015
67.3919
53.8106
42.8842
34.696
28.9733
25.238
22.9576
21.6543
20.9582
20.6168
20.4797
20.4781
20.6109
20.9452
21.6289
22.9118
25.1617
28.857
34.5351
42.6859
53.5993
67.2088
82.9936
100
-300
-300
-300
-300
-300
-300
-300
-300
-300
-300
-300
-300
-300
-300
-300
-300
-300
-300
-300
-300
-300
-300
-300
-300
100
82.9936
67.2088
53.5993
42.6859
34.5351
28.857
25.1617
22.9118
21.6289
20.9452
20.611
20.4781
20.4798
20.6169
20.9583
21.6544
22.9577
25.238
28.9734
34.6961
42.8842
53.8106
67.392
83.1015
100
100
83.1015
67.3919
53.8106
42.8842
34.696
28.9733
25.238
22.9576
21.6543
20.9581
20.6164
20.4787
20.4756
20.6054
20.9336
21.606
22.8698
25.0903
28.7452
34.376
42.4833
53.3758
67.0085
82.8723
100
-300
-300
-300
-300
-300
-300
-300
-300
-300
-300
-300
-300
-300
-300
-300
-300
-300
-300
-300
-300
-300
-300
-300
-300
100
82.8723
67.0085
53.3758
42.4833
34.376
28.7452
25.0903
22.8698
21.606
20.9336
20.6054
20.4756
20.4787
20.6164
20.9581
21.6543
22.9576
25.238
28.9733
34.696
42.8842
53.8106
67.3919
83.1015
100
100
83.1015
67.3919
53.8106
42.8842
34.696
28.9733
25.238
22.9576
21.6542
20.9578
20.6157
20.477
20.4715
20.5962
20.9142
21.5677
22.7987
24.9675
28.5494
34.0908
42.1104
52.9518
66.616
82.6276
100
-300
-300
-300
-300
-300
-300
-300
-300
-300
-300
-300
-300
-300
-300
-300
-300
-300
-300
-300
-300
-300
-300
-300
-300
100
82.6276
66.616
52.9518
42.1104
34.0908
28.5494
24.9675
22.7987
21.5677
20.9142
20.5962
20.4715
20.477
20.6157
20.9578
21.6542
22.9576
25.238
28.9733
34.696
42.8842
53.8106
67.3919
83.1015
100
100
83.1015
67.3919
53.8106
42.8842
34.696
28.9733
25.2379
22.9575
21.654
20.9574
20.6147
20.4744
20.4653
20.5823
20.8845
21.5079
22.6863
24.7701
28.2278
33.6094
41.4595
52.1808
65.8675
82.138
100
-300
-300
-300
-300
-300
-300
-300
-300
-300
-300
-300
-300
-300
-300
-300
-300
-300
-300
-300
-300
-300
-300
-300
-300
100
82.138
65.8675
52.1808
41.4595
33.6094
28.2278
24.7701
22.6863
21.5079
20.8845
20.5823
20.4653
20.4744
20.6147
20.9574
21.654
22.9575
25.2379
28.9733
34.696
42.8842
53.8106
67.3919
83.1015
100
100
83.1015
67.3919
53.8106
42.8842
34.696
28.9733
25.2379
22.9575
21.6539
20.9569
20.6133
20.4708
20.4567
20.5625
20.842
21.4216
22.5215
24.4751
27.7352
32.8484
40.3867
50.8385
64.4701
81.1457
100
-300
-300
-300
-300
-300
-300
-300
-300
-300
-300
-300
-300
-300
-300
-300
-300
-300
-300
-300
-300
-300
-300
-300
-300
100
81.1457
64.4701
50.8385
40.3867
32.8484
27.7352
24.4751
22.5215
21.4216
20.842
20.5625
20.4567
20.4708
20.6133
20.9569
21.6539
22.9575
25.2379
28.9733
34.696
42.8842
53.8106
67.3919
83.1015
100
100
83.1015
67.3919
53.8106
42.8842
34.696
28.9733
25.2379
22.9574
21.6536
20.9562
20.6114
20.4662
20.4455
20.5368
20.786
21.3066
22.2986
24.0682
27.038
31.7322
38.7327
48.6169
61.9086
79.0446
100
-300
-300
-300
-300
-300
-300
-300
-300
-300
-300
-300
-300
-300
-300
-300
-300
-300
-300
-300
-300
-300
-300
-300
-300
100
79.0446
61.9086
48.6169
38.7327
31.7322
27.038
24.0682
22.2986
21.3066
20.786
20.5368
20.4455
20.4662
20.6114
20.9562
21.6536
22.9574
25.2379
28.9733
34.696
42.8842
53.8106
67.3919
83.1015
100
100
83.1015
67.3919
53.8106
42.8842
34.696
28.9732
25.2379
22.9573
21.6533
20.9554
20.6093
20.4607
20.4321
20.5059
20.7183
21.166
22.0223
23.5548
26.1362
30.2362
36.3936
45.1943
57.3506
74.212
100
100
100
100
100
100
100
100
100
100
100
100
100
100
100
100
100
100
100
100
100
100
100
100
100
100
74.212
57.3506
45.1943
36.3936
30.2362
26.1362
23.5548
22.0223
21.166
20.7183
20.5059
20.4321
20.4607
20.6093
20.9554
21.6533
22.9573
25.2379
28.9732
34.696
42.8842
53.8106
67.3919
83.1015
100
100
83.1015
67.3919
53.8106
42.8842
34.696
28.9732
25.2378
22.9572
21.653
20.9545
20.607
20.4547
20.4174
20.4718
20.6432
21.0091
21.7107
22.9676
25.085
28.4431
33.4619
40.54
49.9613
61.6684
74.212
79.0446
81.1457
82.138
82.6276
82.8723
82.9936
83.0523
83.0799
83.0924
83.0978
83.1
83.1008
83.1008
83.1
83.0978
83.0924
83.0799
83.0523
82.9936
82.8723
82.6276
82.138
81.1457
79.0446
74.212
61.6684
49.9613
40.54
33.4619
28.4431
25.085
22.9676
21.7107
21.0091
20.6432
20.4718
20.4174
20.4547
20.607
20.9545
21.653
22.9572
25.2378
28.9732
34.696
42.8842
53.8106
67.3919
83.1015
100
100
83.1015
67.3919
53.8106
42.8842
34.696
28.9732
25.2378
22.9571
21.6527
20.9537
20.6046
20.4487
20.4027
20.4376
20.5674
20.8494
21.3918
22.3625
23.9925
26.5613
30.3554
35.5888
42.2694
49.9613
57.3506
61.9086
64.4701
65.8675
66.616
67.0085
67.2088
67.3077
67.3547
67.3761
67.3855
67.3893
67.3907
67.3907
67.3893
67.3855
67.3761
67.3547
67.3077
67.2088
67.0085
66.616
65.8675
64.4701
61.9086
57.3506
49.9613
42.2694
35.5888
30.3554
26.5613
23.9925
22.3625
21.3918
20.8494
20.5674
20.4376
20.4027
20.4487
20.6046
20.9537
21.6527
22.9571
25.2378
28.9732
34.696
42.8842
53.8106
67.3919
83.1015
100
100
83.1015
67.3919
53.8106
42.8842
34.696
28.9732
25.2378
22.957
21.6525
20.9529
20.6025
20.4432
20.3892
20.406
20.4972
20.7016
21.0959
21.7999
22.9761
24.8144
27.4933
31.1118
35.5888
40.54
45.1943
48.6169
50.8385
52.1808
52.9518
53.3758
53.5993
53.7121
53.7666
53.7918
53.8029
53.8075
53.8091
53.8091
53.8075
53.8029
53.7918
53.7666
53.7121
53.5993
53.3758
52.9518
52.1808
50.8385
48.6169
45.1943
40.54
35.5888
31.1118
27.4933
24.8144
22.9761
21.7999
21.0959
20.7016
20.4972
20.406
20.3892
20.4432
20.6025
20.9529
21.6525
22.957
25.2378
28.9732
34.696
42.8842
53.8106
67.3919
83.1015
100
100
83.1015
67.3919
53.8106
42.8842
34.696
28.9732
25.2377
22.9569
21.6522
20.9522
20.6007
20.4385
20.3778
20.3793
20.4379
20.5765
20.8455
21.3249
22.1214
23.3555
25.1324
27.4933
30.3554
33.4619
36.3936
38.7327
40.3867
41.4595
42.1104
42.4833
42.6859
42.7905
42.8419
42.866
42.8766
42.8811
42.8827
42.8827
42.8811
42.8766
42.866
42.8419
42.7905
42.6859
42.4833
42.1104
41.4595
40.3867
38.7327
36.3936
33.4619
30.3554
27.4933
25.1324
23.3555
22.1214
21.3249
20.8455
20.5765
20.4379
20.3793
20.3778
20.4385
20.6007
20.9522
21.6522
22.9569
25.2377
28.9732
34.696
42.8842
53.8106
67.3919
83.1015
100
100
83.1015
67.3919
53.8106
42.8842
34.696
28.9732
25.2377
22.9569
21.6521
20.9518
20.5993
20.4349
20.3689
20.3586
20.3918
20.4794
20.6516
20.9582
21.465
22.2444
23.3555
24.8144
26.5613
28.4431
30.2362
31.7322
32.8484
33.6094
34.0908
34.376
34.5351
34.619
34.6609
34.6807
34.6896
34.6934
34.6947
34.6947
34.6934
34.6896
34.6807
34.6609
34.619
34.5351
34.376
34.0908
33.6094
32.8484
31.7322
30.2362
28.4431
26.5613
24.8144
23.3555
22.2444
21.465
20.9582
20.6516
20.4794
20.3918
20.3586
20.3689
20.4349
20.5993
20.9518
21.6521
22.9569
25.2377
28.9732
34.696
42.8842
53.8106
67.3919
83.1015
100
100
83.1015
67.392
53.8106
42.8842
34.696
28.9733
25.2378
22.9569
21.652
20.9514
20.5984
20.4324
20.3626
20.3437
20.3588
20.4099
20.5133
20.6976
21.0011
21.465
22.1214
22.9761
23.9925
25.085
26.1362
27.038
27.7352
28.2278
28.5494
28.7452
28.857
28.917
28.9474
28.9619
28.9685
28.9713
28.9723
28.9723
28.9713
28.9685
28.9619
28.9474
28.917
28.857
28.7452
28.5494
28.2278
27.7352
27.038
26.1362
25.085
23.9925
22.9761
22.1214
21.465
21.0011
20.6976
20.5133
20.4099
20.3588
20.3437
20.3626
20.4324
20.5984
20.9514
21.652
22.9569
25.2378
28.9733
34.696
42.8842
53.8106
67.392
83.1015
100
100
83.1015
67.3921
53.8108
42.8844
34.6962
28.9735
25.238
22.9571
21.6521
20.9514
20.5979
20.4309
20.3586
20.334
20.3371
20.3641
20.4222
20.5264
20.6976
20.9582
21.3249
21.7999
22.3625
22.9676
23.5548
24.0682
24.4751
24.7701
24.9675
25.0903
25.1617
25.2007
25.2207
25.2303
25.2348
25.2366
25.2373
25.2373
25.2366
25.2348
25.2303
25.2207
25.2007
25.1617
25.0903
24.9675
24.7701