# vtk DataFile Version 2.0
LBE two cylinders
ASCII
DATASET STRUCTURED_POINTS
DIMENSIONS 76 76 1
ASPECT_RATIO 1 1 1
ORIGIN 0 0 0
POINT_DATA 5776
SCALARS temp double 1
LOOKUP_TABLE default
100
100
100
100
100
100
100
100
100
100
100
100
100
100
100
100
100
100
100
100
100
100
100
100
100
100
-300
-300
-300
-300
-300
-300
-300
-300
-300
-300
-300
-300
-300
-300
100
100
100
100
100
100
100
100
100
100
100
100
100
100
100
100
100
100
100
100
100
100
100
100
100
100
-300
-300
-300
-300
-300
-300
-300
-300
-300
-300
100
98.5822
97.2042
95.9026
94.7081
93.6433
92.7222
91.9506
91.3269
90.8448
90.4951
90.2683
90.1571
90.1571
90.2683
90.4951
90.8448
91.3269
91.9506
92.7222
93.6433
94.7081
95.9026
97.2042
98.5822
100
-300
-300
-300
-300
-300
-300
-300
-300
-300
-300
-300
-300
-300
-300
100
98.5827
97.2051
95.904
94.7098
93.6453
92.7244
91.9529
91.3292
90.847
90.4972
90.2703
90.1588
90.1585
90.2696
90.4961
90.8456
91.3276
91.9511
92.7226
93.6435
94.7082
95.9027
97.2043
98.5822
100
-300
-300
-300
-300
-300
-300
-300
-300
-300
-300
100
97.2039
94.4864
91.9196
89.5639
87.464
85.6476
84.1259
82.896
81.9452
81.2555
80.8084
80.5889
80.5889
80.8084
81.2555
81.9452
82.896
84.1259
85.6476
87.464
89.5639
91.9196
94.4864
97.2039
100
-300
-300
-300
-300
-300
-300
-300
-300
-300
-300
-300
-300
-300
-300
100
97.2051
94.4887
91.9229
89.568
87.4688
85.6529
84.1314
82.9016
81.9507
81.2606
80.8131
80.5931
80.5926
80.8114
81.258
81.9472
82.8975
84.127
85.6484
87.4645
89.5642
91.9198
94.4866
97.204
100
-300
-300
-300
-300
-300
-300
-300
-300
-300
-300
100
95.9015
91.9182
88.1557
84.7027
81.6247
78.9622
76.7317
74.929
73.5354
72.5245
71.8691
71.5475
71.5475
71.8691
72.5245
73.5354
74.929
76.7317
78.9622
81.6247
84.7027
88.1557
91.9182
95.9015
100
-300
-300
-300
-300
-300
-300
-300
-300
-300
-300
-300
-300
-300
-300
100
95.9039
91.9228
88.1623
84.711
81.6343
78.9729
76.7429
74.9402
73.5463
72.5348
71.8785
71.5558
71.5547
71.8752
72.5295
73.5394
74.9321
76.734
78.9639
81.6258
84.7034
88.1562
91.9184
95.9016
100
-300
-300
-300
-300
-300
-300
-300
-300
-300
-300
100
94.705
89.5588
84.698
80.2369
76.2604
72.8208
69.9392
67.6103
65.8099
64.5039
63.6572
63.2417
63.2417
63.6572
64.5039
65.8099
67.6103
69.9392
72.8208
76.2604
80.2369
84.698
89.5588
94.705
100
-300
-300
-300
-300
-300
-300
-300
-300
-300
-300
-300
-300
-300
-300
100
94.7095
89.5675
84.7105
80.2526
76.2786
72.8408
69.9601
67.6314
65.8305
64.5233
63.675
63.2575
63.2554
63.6688
64.5133
65.8174
67.616
69.9434
72.8238
76.2625
80.2383
84.6989
89.5593
94.7053
100
-300
-300
-300
-300
-300
-300
-300
-300
-300
-300
100
93.6364
87.4516
81.6098
76.2484
71.4694
67.3357
63.8727
61.0739
58.9103
57.3408
56.3233
55.824
55.824
56.3233
57.3408
58.9103
61.0739
63.8727
67.3357
71.4694
76.2484
81.6098
87.4516
93.6364
100
-300
-300
-300
-300
-300
-300
-300
-300
-300
-300
-300
-300
-300
-300
100
93.6445
87.4674
81.6326
76.2771
71.5028
67.3723
63.9111
61.1126
58.948
57.3764
56.3559
55.853
55.8491
56.3444
57.358
58.9239
61.0844
63.8805
67.3413
71.4732
76.2509
81.6113
87.4525
93.6368
100
-300
-300
-300
-300
-300
-300
-300
-300
-300
-300
100
92.7084
85.6217
78.9281
72.785
67.3092
62.5728
58.605
55.3982
52.9192
51.121
49.9552
49.3831
49.3831
49.9552
51.121
52.9192
55.3982
58.605
62.5728
67.3092
72.785
78.9281
85.6217
92.7084
100
-300
-300
-300
-300
-300
-300
-300
-300
-300
-300
-300
-300
-300
-300
100
92.7229
85.6499
78.9687
72.8362
67.3687
62.6381
58.6734
55.4672
52.9865
51.1845
50.0135
49.4349
49.4279
49.9929
51.1517
52.9435
55.4168
58.6188
62.5827
67.3159
72.7893
78.9308
85.6232
92.7091
100
-300
-300
-300
-300
-300
-300
-300
-300
-300
-300
100
91.9249
84.0766
76.6638
69.8606
63.7965
58.5513
54.1572
50.606
47.8608
45.8695
44.5785
43.945
43.945
44.5785
45.8695
47.8608
50.606
54.1572
58.5513
63.7965
69.8606
76.6638
84.0766
91.9249
100
-300
-300
-300
-300
-300
-300
-300
-300
-300
-300
-300
-300
-300
-300
100
91.95
84.1257
76.7345
69.9497
63.9001
58.6651
54.2765
50.7264
47.9782
45.9803
44.6802
44.0355
44.0232
44.6443
45.923
47.9031
50.6384
54.1811
58.5682
63.808
69.868
76.6683
84.0791
91.926
100
-300
-300
-300
-300
-300
-300
-300
-300
-300
-300
100
91.2815
82.8079
74.8044
67.4593
60.9121
55.2492
50.5052
46.6712
43.7074
41.5576
40.164
39.48
39.48
40.164
41.5576
43.7074
46.6712
50.5052
55.2492
60.9121
67.4593
74.8044
82.8079
91.2815
100
-300
-300
-300
-300
-300
-300
-300
-300
-300
-300
-300
-300
-300
-300
100
91.3242
82.8913
74.9247
67.6109
61.0885
55.4429
50.7084
46.8764
43.9075
41.7467
40.3373
39.6343
39.6134
40.2759
41.6488
43.7794
46.7261
50.5455
55.2777
60.9314
67.4716
74.8118
82.812
91.2832
100
-300
-300
-300
-300
-300
-300
-300
-300
-300
-300
100
90.7676
81.7947
73.3195
65.5415
58.6086
52.6121
47.5887
43.529
40.3907
38.1144
36.6387
35.9145
35.9145
36.6387
38.1144
40.3907
43.529
47.5887
52.6121
58.6086
65.5415
73.3195
81.7947
90.7676
100
-300
-300
-300
-300
-300
-300
-300
-300
-300
-300
-300
-300
-300
-300
100
90.8385
81.9332
73.5193
65.7936
58.9019
52.9343
47.9269
43.8706
40.724
38.4294
36.9275
36.1716
36.1367
36.8251
38.266
40.5102
43.6199
47.6553
52.6589
58.6399
65.5613
73.3312
81.8009
90.7703
100
-300
-300
-300
-300
-300
-300
-300
-300
-300
-300
100
90.3684
81.0075
72.166
64.0517
56.8192
50.5636
45.3231
41.0881
37.8143
35.4397
33.9003
33.1448
33.1448
33.9003
35.4397
37.8143
41.0881
45.3231
50.5636
56.8192
64.0517
72.166
81.0075
90.3684
100
-300
-300
-300
-300
-300
-300
-300
-300
-300
-300
-300
-300
-300
-300
100
90.4835
81.2323
72.4902
64.461
57.2957
51.0873
45.8732
41.6439
38.3569
35.9527
34.3708
33.5635
33.5065
34.2035
35.686
38.0079
41.235
45.4303
50.6383
56.8688
64.0827
72.1839
81.0169
90.3723
100
-300
-300
-300
-300
-300
-300
-300
-300
-300
-300
100
90.0667
80.4126
71.2941
62.9258
55.4668
49.0154
43.6109
39.2434
35.8673
33.4184
31.8309
31.0518
31.0518
31.8309
33.4184
35.8673
39.2434
43.6109
49.0154
55.4668
62.9258
71.2941
80.4126
90.0667
100
-300
-300
-300
-300
-300
-300
-300
-300
-300
-300
-300
-300
-300
-300
100
90.249
80.7689
71.8083
63.5751
56.2232
49.8473
44.4852
40.1274
36.7307
34.235
32.5797
31.7181
31.6271
32.3126
33.8091
36.1736
39.475
43.779
49.1317
55.543
62.9726
71.3206
80.426
90.0721
100
-300
-300
-300
-300
-300
-300
-300
-300
-300
-300
100
89.8448
79.975
70.6529
62.0977
54.4722
47.8768
42.3518
37.8869
34.4355
31.932
30.3092
29.5127
29.5127
30.3092
31.932
34.4355
37.8869
42.3518
47.8768
54.4722
62.0977
70.6529
79.975
89.8448
100
-300
-300
-300
-300
-300
-300
-300
-300
-300
-300
-300
-300
-300
-300
100
90.1271
80.5269
71.4496
63.1044
55.6456
49.1682
43.71
39.261
35.7783
33.2025
31.4743
30.5491
30.4068
31.0568
32.5373
34.9088
38.2432
42.6088
48.0531
54.586
62.166
70.6903
79.9932
89.8518
100
-300
-300
-300
-300
-300
-300
-300
-300
-300
-300
100
89.686
79.6618
70.1939
61.505
53.7603
47.0619
41.4506
36.916
33.4108
30.8683
29.2201
28.4113
28.4113
29.2201
30.8683
33.4108
36.916
41.4506
47.0619
53.7603
61.505
70.1939
79.6618
89.686
100
-300
-300
-300
-300
-300
-300
-300
-300
-300
-300
-300
-300
-300
-300
100
90.113
80.4969
71.4002
63.0301
55.5393
49.0215
43.5132
39.0044
35.4527
32.8007
30.9923
29.9868
29.7692
30.354
31.7841
34.1245
37.4507
41.8334
47.3215
53.925
61.601
70.2441
79.6845
89.694
100
-300
-300
-300
-300
-300
-300
-300
-300
-300
-300
100
89.5753
79.4436
69.8742
61.0921
53.2644
46.4942
40.8228
36.2396
32.6969
30.1272
28.4615
27.644
27.644
28.4615
30.1272
32.6969
36.2396
40.8228
46.4942
53.2644
61.0921
69.8742
79.4436
89.5753
100
-300
-300
-300
-300
-300
-300
-300
-300
-300
-300
-300
-300
-300
-300
100
90.2065
80.6784
71.6588
63.35
55.9007
49.4009
43.8852
39.3431
35.7334
33.0017
31.0972
29.9858
29.6599
30.1415
31.4805
33.7474
37.0221
41.378
46.8654
53.4945
61.221
69.937
79.4687
89.5827
100
-300
-300
-300
-300
-300
-300
-300
-300
-300
-300
100
89.5002
79.2956
69.6572
60.8119
52.9279
46.109
40.3969
35.7809
32.2127
29.6246
27.9469
27.1235
27.1235
27.9469
29.6246
32.2127
35.7809
40.3969
46.109
52.9279
60.8119
69.6572
79.2956
89.5002
100
-300
-300
-300
-300
-300
-300
-300
-300
-300
-300
-300
-300
-300
-300
100
90.4121
81.08
72.238
64.0799
56.7475
50.3251
44.844
40.2922
36.6299
33.8074
31.7812
30.5274
30.0492
30.3794
31.5775
33.7217
36.8971
41.1805
46.6238
53.2375
60.9759
69.7285
79.3172
89.503
100
-300
-300
-300
-300
-300
-300
-300
-300
-300
-300
100
89.4506
79.1978
69.5139
60.6269
52.7057
45.8546
40.1156
35.4778
31.8929
29.2926
27.607
26.7798
26.7798
27.607
29.2926
31.8929
35.4778
40.1156
45.8546
52.7057
60.6269
69.5139
79.1978
89.4506
100
-300
-300
-300
-300
-300
-300
-300
-300
-300
-300
-300
-300
-300
-300
100
90.738
81.7183
73.162
65.2512
58.1171
51.8362
46.4337
41.8949
38.1815
35.2493
33.0653
31.6196
30.9314
31.049
32.0451
34.0079
37.0295
41.1907
46.5455
53.1045
60.8209
69.5813
79.2034
89.4411
100
-300
-300
-300
-300
-300
-300
-300
-300
-300
-300
100
89.4187
79.1349
69.4217
60.5078
52.5627
45.6909
39.9346
35.2828
31.6871
29.079
27.3883
26.5586
26.5586
27.3883
29.079
31.6871
35.2828
39.9346
45.6909
52.5627
60.5078
69.4217
79.1349
89.4187
100
-300
-300
-300
-300
-300
-300
-300
-300
-300
-300
-300
-300
-300
-300
100
91.1956
82.6156
74.4639
66.907
60.0624
53.9946
48.7204
44.2198
40.4543
37.3859
34.9953
33.2927
32.3204
32.1484
32.8675
34.5792
37.3838
41.3673
46.5858
53.0503
60.7134
69.4592
79.1003
89.3827
100
-300
-300
-300
-300
-300
-300
-300
-300
-300
-300
100
89.3987
79.0954
69.3639
60.4331
52.473
45.5883
39.8211
35.1606
31.5581
28.9451
27.2512
26.42
26.42
27.2512
28.9451
31.5581
35.1606
39.8211
45.5883
52.473
60.4331
69.3639
79.0954
89.3987
100
-300
-300
-300
-300
-300
-300
-300
-300
-300
-300
-300
-300
-300
-300
100
91.7966
83.7955
76.1796
69.0956
62.6433
56.8721
51.7855
47.3542
43.5356
40.2972
37.6368
35.5933
34.2424
33.6854
34.0369
35.415
37.93
41.6728
46.702
53.0301
60.6094
69.3229
78.9782
89.3113
100
-300
-300
-300
-300
-300
-300
-300
-300
-300
-300
100
89.3865
79.0713
69.3286
60.3875
52.4182
45.5256
39.7518
35.0859
31.4793
28.8633
27.1675
26.3353
26.3353
27.1675
28.8633
31.4793
35.0859
39.7518
45.5256
52.4182
60.3875
69.3286
79.0713
89.3865
100
-300
-300
-300
-300
-300
-300
-300
-300
-300
-300
-300
-300
-300
-300
100
92.5511
85.2787
78.3409
71.8612
65.9183
60.5418
55.717
51.3978
47.53
44.0808
41.0686
38.5752
36.7266
35.6677
35.5445
36.4941
38.6367
42.0682
46.8495
52.9946
60.4585
69.1249
78.799
89.2057
100
-300
-300
-300
-300
-300
-300
-300
-300
-300
-300
100
89.3792
79.0569
69.3075
60.3603
52.3856
45.4883
39.7105
35.0414
31.4323
28.8146
27.1176
26.2849
26.2849
27.1176
28.8146
31.4323
35.0414
39.7105
45.4883
52.3856
60.3603
69.3075
79.0569
89.3792
100
-300
-300
-300
-300
-300
-300
-300
-300
-300
-300
-300
-300
-300
-300
100
93.4647
87.0771
80.9677
75.2345
69.9323
65.0673
60.6
56.457
52.5567
48.8509
45.3778
42.2896
39.792
38.091
37.3701
37.7858
39.466
42.5088
46.9763
52.8857
60.1975
68.8028
78.51
89.0345
100
-300
-300
-300
-300
-300
-300
-300
-300
-300
-300
100
89.375
79.0486
69.2953
60.3446
52.3667
45.4666
39.6865
35.0156
31.4051
28.7863
27.0887
26.2556
26.2556
27.0887
28.7863
31.4051
35.0156
39.6865
45.4666
52.3667
60.3446
69.2953
79.0486
89.375
100
-300
-300
-300
-300
-300
-300
-300
-300
-300
-300
-300
-300
-300
-300
100
94.5355
89.1882
84.0596
79.2214
74.7038
70.4884
66.5056
62.6404
58.7553
54.7474
50.6565
46.7716
43.4312
40.9236
39.4711
39.2428
40.3674
42.9399
47.0211
52.6323
59.7455
68.2699
78.0316
88.7474
100
-300
-300
-300
-300
-300
-300
-300
-300
-300
-300
100
89.3726
79.0439
69.2884
60.3356
52.3559
45.4543
39.673
35.001
31.3897
28.7703
27.0723
26.239
26.239
27.0723
28.7703
31.3897
35.001
39.673
45.4543
52.3559
60.3356
69.2884
79.0439
89.3726
100
-300
-300
-300
-300
-300
-300
-300
-300
-300
-300
-300
-300
-300
-300
100
95.7522
91.5906
87.5883
83.792
80.2108
76.8051
73.476
70.0552
66.3056
61.9734
57.0025
52.0169
47.5851
44.0887
41.7712
40.7955
41.2768
43.2978
46.9138
52.1505
58.9987
67.4027
77.2365
88.254
100
-300
-300
-300
-300
-300
-300
-300
-300
-300
-300
100
89.3712
79.0413
69.2846
60.3307
52.35
45.4475
39.6655
34.9929
31.3811
28.7614
27.0632
26.2298
26.2298
27.0632
28.7614
31.3811
34.9929
39.6655
45.4475
52.35
60.3307
69.2846
79.0413
89.3712
100
-300
-300
-300
-300
-300
-300
-300
-300
-300
-300
-300
-300
-300
-300
100
97.0922
94.2407
91.4916
88.8711
86.3747
83.9543
81.4979
78.7937
75.4674
70.9141
64.5078
57.931
52.1036
47.4428
44.1523
42.3505
42.118
43.514
46.5816
51.3491
57.8309
66.0269
75.9116
87.3729
100
-300
-300
-300
-300
-300
-300
-300
-300
-300
-300
100
89.3705
79.0398
69.2825
60.328
52.3468
45.4439
39.6614
34.9886
31.3765
28.7567
27.0584
26.2249
26.2249
27.0584
28.7567
31.3765
34.9886
39.6614
45.4439
52.3468
60.328
69.2825
79.0398
89.3705
100
-300
-300
-300
-300
-300
-300
-300
-300
-300
-300
-300
-300
-300
-300
100
98.5223
97.0722
95.6719
94.3322
93.0463
91.7794
90.4482
88.87
86.6161
82.5438
73.1488
64.1992
56.6839
50.7585
46.455
43.7973
42.8122
43.526
45.9626
50.1459
56.1081
63.9125
73.6925
85.6864
100
-300
-300
-300
-300
-300
-300
-300
-300
-300
-300
100
89.3701
79.0391
69.2814
60.3266
52.3451
45.442
39.6593
34.9863
31.3741
28.7541
27.0558
26.2223
26.2223
27.0558
28.7541
31.3741
34.9863
39.6593
45.4419
52.3451
60.3266
69.2814
79.0391
89.3701
100
-300
-300
-300
-300
-300
-300
-300
-300
-300
-300
-300
-300
-300
-300
100
100
100
100
100
100
100
100
100
100
100
82.0832
69.9929
60.8169
53.7368
48.5001
45.0267
43.2927
43.2926
45.0262
48.4993
53.7357
60.8155
69.9914
82.0819
100
100
100
100
100
100
100
100
100
100
100
100
89.37
79.0387
69.2809
60.3259
52.3443
45.441
39.6582
34.9851
31.3729
28.7529
27.0545
26.221
26.221
27.0545
28.7528
31.3729
34.9851
39.6582
45.4409
52.3442
60.3259
69.2808
79.0387
89.3699
100
-300
-300
-300
-300
-300
-300
-300
-300
-300
-300
-300
-300
-300
-300
-300
-300
-300
-300
-300
-300
-300
-300
-300
-300
100
85.6863
73.692
63.9114
56.1065
50.1437
45.9599
43.5228
42.8086
43.7934
46.4508
50.754
56.6793
64.1946
73.1444
82.5398
86.6124
88.8665
90.445
91.7765
93.0437
94.3301
95.6702
97.0711
98.5218
100
100
89.3699
79.0385
69.2806
60.3255
52.3438
45.4405
39.6577
34.9845
31.3723
28.7522
27.0538
26.2203
26.2203
27.0538
28.7522
31.3722
34.9844
39.6576
45.4404
52.3437
60.3255
69.2805
79.0385
89.3698
100
-300
-300
-300
-300
-300
-300
-300
-300
-300
-300
-300
-300
-300
-300
-300
-300
-300
-300
-300
-300
-300
-300
-300
-300
100
87.3716
75.9091
66.0232
57.8259
51.3431
46.5746
43.5061
42.1095
42.3415
44.1429
47.4331
52.0937
57.9211
64.4982
70.9048
75.4584
78.7853
81.4901
83.9472
86.3685
88.866
91.4877
94.238
97.0909
100
100
89.3698
79.0384
69.2804
60.3254
52.3436
45.4402
39.6574
34.9842
31.3719
28.7519
27.0535
26.2199
26.2199
27.0534
28.7518
31.3718
34.9841
39.6572
45.4401
52.3435
60.3252
69.2803
79.0384
89.3698
100
-300
-300
-300
-300
-300
-300
-300
-300
-300
-300
-300
-300
-300
-300
-300
-300
-300
-300
-300
-300
-300
-300
-300
-300
100
88.2513
77.2311
67.3947
58.9884
52.1381
46.8996
43.2821
41.2598
40.7777
41.7527
44.0697
47.5659
51.9977
56.9836
61.955
66.2879
70.0384
73.4604
76.791
80.1985
83.7817
87.5804
91.5852
95.7494
100
100
89.3698
79.0384
69.2804
60.3253
52.3435
45.4401
39.6573
34.9841
31.3718
28.7517
27.0533
26.2197
26.2197
27.0532
28.7516
31.3716
34.9838
39.657
45.4398
52.3432
60.325
69.2801
79.0382
89.3697
100
-300
-300
-300
-300
-300
-300
-300
-300
-300
-300
-300
-300
-300
-300
-300
-300
-300
-300
-300
-300
-300
-300
-300
-300
100
88.7422
78.0213
68.2548
59.726
52.6088
46.9943
42.9103
40.3356
39.2093
39.4363
40.888
43.3953
46.7357
50.6211
54.7128
58.722
62.6088
66.4763
70.4619
74.6806
79.2021
84.0447
89.178
94.5303
100
100
89.3698
79.0384
69.2803
60.3252
52.3435
45.44
39.6572
34.984
31.3717
28.7516
27.0531
26.2196
26.2195
27.053
28.7513
31.3713
34.9835
39.6566
45.4394
52.3428
60.3247
69.2799
79.038
89.3696
100
-300
-300
-300
-300
-300
-300
-300
-300
-300
-300
-300
-300
-300
-300
-300
-300
-300
-300
-300
-300
-300
-300
-300
-300
100
89.0249
78.4911
68.7752
60.1619
52.8429
46.9274
42.4549
39.408
37.7247
37.3068
38.0263
39.7267
42.2243
45.3132
48.7879
52.496
56.3996
60.5467
65.019
69.8901
75.1994
80.9405
87.0585
93.4552
100
100
89.3698
79.0384
69.2803
60.3252
52.3434
45.44
39.6571
34.9839
31.3716
28.7515
27.053
26.2194
26.2193
27.0527
28.7509
31.3708
34.983
39.656
45.4388
52.3422
60.3241
69.2794
79.0377
89.3694
100
-300
-300
-300
-300
-300
-300
-300
-300
-300
-300
-300
-300
-300
-300
-300
-300
-300
-300
-300
-300
-300
-300
-300
-300
100
89.1886
78.7654
69.0757
60.3951
52.9186
46.7627
41.9725
38.5338
36.3856
35.4322
35.5529
36.6106
38.4593
40.9541
43.969
47.4224
51.2958
55.6223
60.4562
65.8435
71.7989
78.2926
85.2458
92.5344
100
100
89.3698
79.0384
69.2803
60.3252
52.3434
45.44
39.6571
34.9839
31.3715
28.7513
27.0528
26.2191
26.2189
27.0521
28.7503
31.37
34.982
39.655
45.4377
52.3411
60.3231
69.2785
79.0371
89.3691
100
-300
-300
-300
-300
-300
-300
-300
-300
-300
-300
-300
-300
-300
-300
-300
-300
-300
-300
-300
-300
-300
-300
-300
-300
100
89.2817
78.9198
69.2375
60.4994
52.8982
46.5515
41.5066
37.7514
35.227
33.8421
33.4863
34.0413
35.3924
37.4383
40.1034
43.3491
47.1774
51.6214
56.7237
62.5137
68.9876
76.096
83.7384
91.7676
100
100
89.3698
79.0384
69.2803
60.3252
52.3434
45.4399
39.657
34.9838
31.3713
28.7511
27.0524
26.2186
26.2182
27.0513
28.7491
31.3686
34.9804
39.6532
45.4358
52.3392
60.3213
69.277
79.0359
89.3685
100
-300
-300
-300
-300
-300
-300
-300
-300
-300
-300
-300
-300
-300
-300
-300
-300
-300
-300
-300
-300
-300
-300
-300
-300
100
89.3325
79.0014
69.3145
60.5269
52.8268
46.3306
41.0859
37.0814
34.2607
32.5376
31.8113
31.98
32.9527
34.6594
37.058
40.1385
43.9207
48.4428
53.7436
59.8431
66.7244
74.3225
82.5191
91.1466
100
100
89.3698
79.0383
69.2803
60.3252
52.3433
45.4399
39.6569
34.9836
31.3711
28.7507
27.0518
26.2178
26.2171
27.0497
28.7472
31.3662
34.9775
39.6499
45.4323
52.3357
60.318
69.2742
79.0339
89.3674
100
-300
-300
-300
-300
-300
-300
-300
-300
-300
-300
-300
-300
-300
-300
-300
-300
-300
-300
-300
-300
-300
-300
-300
-300
100
89.3579
79.0395
69.3416
60.512
52.7345
46.1232
40.725
36.5292
33.4813
31.4996
30.4917
30.3687
31.0576
32.5102
34.7074
37.6597
41.4007
45.975
51.4215
57.7548
64.9495
72.9284
81.5589
90.6572
100
100
89.3698
79.0383
69.2803
60.3251
52.3433
45.4398
39.6567
34.9833
31.3706
28.75
27.0508
26.2163
26.2151
27.0471
28.7438
31.362
34.9726
39.6443
45.4263
52.3296
60.3123
69.2694
79.0304
89.3656
100
-300
-300
-300
-300
-300
-300
-300
-300
-300
-300
-300
-300
-300
-300
-300
-300
-300
-300
-300
-300
-300
-300
-300
-300
100
89.3684
79.0521
69.3407
60.4763
52.6392
45.9411
40.4278
36.0888
32.871
30.6967
29.4796
29.1407
29.6202
30.8852
32.9328
35.7878
39.4946
44.1038
49.6559
56.1628
63.5931
71.861
80.8228
90.2816
100
100
89.3698
79.0383
69.2802
60.3251
52.3432
45.4396
39.6564
34.9828
31.3699
28.7489
27.0492
26.214
26.2118
27.0427
28.7381
31.355
34.9642
39.6348
45.4161
52.3193
60.3026
69.2612
79.0244
89.3624
100
-300
-300
-300
-300
-300
-300
-300
-300
-300
-300
-300
-300
-300
-300
-300
-300
-300
-300
-300
-300
-300
-300
-300
-300
100
89.3698
79.0495
69.324
60.4316
52.5494
45.7873
40.19
35.7467
32.4055
30.0913
28.7227
28.2277
28.5558
29.6849
31.6234
34.4064
38.0863
42.7189
48.3463
54.9795
62.5831
71.0649
80.2731
90.001
100
100
89.3697
79.0383
69.2802
60.325
52.343
45.4393
39.656
34.9821
31.3687
28.7471
27.0465
26.2101
26.2064
27.0355
28.7288
31.3434
34.9504
39.6191
45.3991
52.3021
60.2864
69.2473
79.0142
89.357
100
-300
-300
-300
-300
-300
-300
-300
-300
-300
-300
-300
-300
-300
-300
-300
-300
-300
-300
-300
-300
-300
-300
-300
-300
100
89.3651
79.0369
69.2974
60.3824
52.4667
45.6587
40.0019
35.4851
32.0572
29.6446
28.1693
27.5644
27.7857
28.8186
30.6795
33.4107
37.0704
41.7185
47.3989
54.122
61.85
70.4865
79.8734
89.7968
100
100
89.3697
79.0383
69.2801
60.3248
52.3428
45.4389
39.6553
34.9809
31.3669
28.7443
27.0423
26.2041
26.198
27.0241
28.714
31.3249
34.9282
39.5937
45.3715
52.2738
60.2596
69.2243
78.9974
89.3481
100
-300
-300
-300
-300
-300
-300
-300
-300
-300
-300
-300
-300
-300
-300
-300
-300
-300
-300
-300
-300
-300
-300
-300
-300
100
89.3551
79.0155
69.2617
60.3279
52.3877
45.5478
39.8507
35.2845
31.7982
29.3193
27.7718
27.0921
27.2404
28.2074
30.0147
32.7098
36.3551
41.0135
46.7303
53.5162
61.3315
70.0769
79.5901
89.652
100
100
89.3697
79.0382
69.28
60.3246
52.3424
45.4382
39.6542
34.9792
31.3641
28.74
27.0359
26.1948
26.185
27.0065
28.691
31.2959
34.8932
39.5533
45.3274
52.2285
60.2164
69.1871
78.9699
89.3335
100
-300
-300
-300
-300
-300
-300
-300
-300
-300
-300
-300
-300
-300
-300
-300
-300
-300
-300
-300
-300
-300
-300
-300
-300
100
89.3389
78.9834
69.2136
60.2632
52.3047
45.4437
39.7214
35.1248
31.6023
29.0816
27.4882
26.7603
26.8611
27.7848
29.5566
32.2275
35.8632
40.5285
46.2702
53.0988
60.974
69.7942
79.3945
89.552
100
100
89.3697
79.0381
69.2798
60.3243
52.3419
45.4373
39.6526
34.9766
31.36
28.7337
27.0264
26.181
26.1655
26.9799
28.6559
31.2515
34.8392
39.4907
45.2584
52.157
60.1478
69.1276
78.9259
89.31
100
-300
-300
-300
-300
-300
-300
-300
-300
-300
-300
-300
-300
-300
-300
-300
-300
-300
-300
-300
-300
-300
-300
-300
-300
100
89.314
78.9353
69.1456
60.1787
52.2066
45.3331
39.5978
34.9861
31.4451
28.9022
27.283
26.5272
26.5997
27.4969
29.2467
31.9027
35.5324
40.2027
45.9611
52.8184
60.7336
69.6041
79.2629
89.4847
100
100
89.3696
79.038
69.2796
60.3239
52.3411
45.436
39.6504
34.9729
31.3542
28.7246
27.0127
26.1608
26.1369
26.9406
28.6039
31.1851
34.7579
39.3955
45.1526
52.0465
60.0409
69.0343
78.8563
89.2728
100
-300
-300
-300
-300
-300
-300
-300
-300
-300
-300
-300
-300
-300
-300
-300
-300
-300
-300
-300
-300
-300
-300
-300
-300
100
89.2755
78.8626
69.046
60.0607
52.0779
45.1994
39.4621
34.8488
31.3045
28.7555
27.127
26.3591
26.4179
27.3015
29.0396
31.6875
35.3145
39.9886
45.7582
52.6344
60.576
69.4794
79.1765
89.4405
100
100
89.3696
79.0378
69.2793
60.3233
52.34
45.4342
39.6473
34.9678
31.3459
28.7118
26.9933
26.1322
26.0961
26.8842
28.5286
31.0883
34.6382
39.2541
44.9938
51.8788
59.8768
68.8896
78.7476
89.2143
100
-300
-300
-300
-300
-300
-300
-300
-300
-300
-300
-300
-300
-300
-300
-300
-300
-300
-300
-300
-300
-300
-300
-300
-300
100
89.216
78.7516
68.8969
59.8892
51.8981
45.0224
39.2944
34.6931
31.1602
28.6198
26.9962
26.2295
26.2865
27.1666
28.9008
31.546
35.173
39.8505
45.6279
52.5165
60.475
69.3996
79.1213
89.4123
100
100
89.3695
79.0376
69.2789
60.3225
52.3386
45.4317
39.6431
34.9609
31.3348
28.6943
26.9666
26.0928
26.0395
26.8054
28.4225
30.9505
34.4661
39.0484
44.7601
51.6288
59.6289
68.6681
78.5793
89.123
100
-300
-300
-300
-300
-300
-300
-300
-300
-300
-300
-300
-300
-300
-300
-300
-300
-300
-300
-300
-300
-300
-300
-300
-300
100
89.124
78.5818
68.6726
59.6364
51.6403
44.7771
39.0723
34.4985
30.9928
28.4761
26.8712
26.1177
26.1833
27.0683
28.8052
31.4522
35.0813
39.7624
45.5455
52.4423
60.4117
69.3496
79.0867
89.3946
100
100
89.3694
79.0373
69.2783
60.3215
52.3368
45.4285
39.6377
34.9518
31.3201
28.6711
26.9312
26.04
25.9631
26.6983
28.277
30.7595
34.2248
38.7562
44.4231
51.2624
59.2596
68.3324
78.3203
88.9809
100
-300
-300
-300
-300
-300
-300
-300
-300
-300
-300
-300
-300
-300
-300
-300
-300
-300
-300
-300
-300
-300
-300
-300
-300
100
88.9815
78.3218
68.3351
59.2639
51.2691
44.4329
38.77
34.2435
30.7838
28.3077
26.736
26.0079
26.0919
26.9894
28.7347
31.3874
35.0209
39.7061
45.4938
52.3963
60.3728
69.319
79.0656
89.3838
100
100
89.3692
79.037
69.2776
60.3202
52.3345
45.4245
39.6307
34.9403
31.3013
28.6414
26.8853
25.9713
25.863
26.5566
28.0827
30.5018
33.895
38.3507
43.9474
50.7352
58.7164
67.8276
77.9223
88.7589
100
-300
-300
-300
-300
-300
-300
-300
-300
-300
-300
-300
-300
-300
-300
-300
-300
-300
-300
-300
-300
-300
-300
-300
-300
100
88.7592
77.9232
67.8292
58.7189
50.739
43.953
38.3585
33.9055
30.5154
28.1
26.5777
25.8881
26.0003
26.918
28.677
31.339
34.979
39.6691
45.4611
52.3679
60.349
69.3005
79.0528
89.3773
100
100
89.369
79.0366
69.2768
60.3187
52.3317
45.4195
39.6222
34.926
31.278
28.6043
26.8278
25.8846
25.7357
26.375
27.8311
30.1639
33.4564
37.8024
43.2912
49.9904
57.9281
67.0724
77.3081
88.4068
100
-300
-300
-300
-300
-300
-300
-300
-300
-300
-300
-300
-300
-300
-300
-300
-300
-300
-300
-300
-300
-300
-300
-300
-300
100
88.4071
77.3086
67.0733
57.9295
49.9926
43.2943
37.8067
33.4622
30.1714
27.8405
26.3865
25.7494
25.9005
26.8457
28.6238
31.2987
34.9472
39.6433
45.4396
52.35
60.3345
69.2894
79.0453
89.3735
100
100
89.3689
79.0361
69.2759
60.3169
52.3284
45.4137
39.6121
34.9089
31.25
28.5595
26.758
25.7785
25.5788
26.1493
27.5152
29.7344
32.8905
37.0818
42.4089
48.9607
56.8001
65.9467
76.3493
87.8321
100
-300
-300
-300
-300
-300
-300
-300
-300
-300
-300
-300
-300
-300
-300
-300
-300
-300
-300
-300
-300
-300
-300
-300
-300
100
87.8323
76.3496
65.9472
56.8009
48.9619
42.4105
37.0841
32.8936
29.7384
27.5202
26.1555
25.5862
25.787
26.7676
28.5699
31.2611
34.9203
39.6234
45.4244
52.3383
60.3254
69.2826
79.0408
89.3712
100
100
89.3687
79.0357
69.2749
60.315
52.3248
45.4071
39.6005
34.8893
31.2175
28.5072
26.6759
25.6531
25.392
25.878
27.1316
29.2065
32.184
36.1645
41.2576
47.5732
55.215
64.2762
74.8254
86.844
100
-300
-300
-300
-300
-300
-300
-300
-300
-300
-300
-300
-300
-300
-300
-300
-300
-300
-300
-300
-300
-300
-300
-300
-300
100
86.844
74.8255
64.2764
55.2154
47.5738
41.2584
36.1657
32.1856
29.2086
27.1343
25.8813
25.3958
25.6575
26.6809
28.5126
31.2233
34.8952
39.6064
45.4127
52.3299
60.3194
69.2784
79.0381
89.3699
100
100
89.3685
79.0352
69.2739
60.3129
52.3209
45.3999
39.5878
34.8674
31.1811
28.4482
26.5828
25.5098
25.177
25.5634
26.6824
28.5807
31.334
35.0395
39.8091
45.7656
53.0467
61.8249
72.3513
84.9959
100
-300
-300
-300
-300
-300
-300
-300
-300
-300
-300
-300
-300
-300
-300
-300
-300
-300
-300
-300
-300
-300
-300
-300
-300
100
84.996
72.3514
61.825
53.0469
45.7659
39.8096
35.0401
31.3348
28.5818
26.6837
25.5651
25.179
25.5121
26.5854
28.451
31.184
34.8704
39.5908
45.4027
52.3235
60.3152
69.2757
79.0365
89.3691
100
100
89.3684
79.0349
69.2731
60.3111
52.317
45.3925
39.5744
34.8441
31.1419
28.3841
26.4809
25.352
24.9386
25.2118
26.1759
27.8678
30.3528
33.7181
38.0673
43.5172
50.2076
58.3385
68.2968
81.0868
100
100
100
100
100
100
100
100
100
100
100
100
100
100
100
100
100
100
100
100
100
100
100
100
100
100
81.0868
68.2968
58.3386
50.2077
43.5174
38.0675
33.7184
30.3532
27.8684
26.1766
25.2126
24.9396
25.3531
26.4822
28.3855
31.1433
34.8456
39.5759
45.394
52.3184
60.3122
69.274
79.0355
89.3687
100
100
89.3685
79.0349
69.2727
60.3098
52.3138
45.3857
39.5614
34.8207
31.1015
28.3173
26.3738
25.1848
24.6843
24.8341
25.6278
27.0895
29.2703
32.2408
36.0845
40.8906
46.7506
53.7572
61.9924
71.4102
81.0868
84.9959
86.8439
87.8321
88.4067
88.7587
88.9805
89.1223
89.213
89.2705
89.3059
89.3262
89.3354
89.3354
89.3262
89.3059
89.2705
89.213
89.1223
88.9805
88.7587
88.4067
87.8321
86.8439
84.9959
81.0868
71.4102
61.9925
53.7572
46.7506
40.8907
36.0846
32.2409
29.2705
27.0898
25.6281
24.8345
24.6847
25.1854
26.3744
28.318
31.1023
34.8214
39.5621
45.3864
52.3145
60.3104
69.2732
79.0352
89.3687
100
100
89.3689
79.0356
69.2734
60.3097
52.312
45.3805
39.55
34.7988
31.0625
28.2512
26.2662
25.015
24.4239
24.4448
25.0592
26.277
28.132
30.6749
33.9632
38.0501
42.9695
48.7113
55.1671
61.9924
68.2968
72.3513
74.8253
76.3492
77.3079
77.922
78.3196
78.578
78.7452
78.8519
78.918
78.956
78.9733
78.9733
78.956
78.918
78.8519
78.7452
78.578
78.3196
77.922
77.3079
76.3492
74.8253
72.3513
68.2968
61.9924
55.1671
48.7113
42.9695
38.0501
33.9633
30.675
28.1321
26.2771
25.0594
24.445
24.4241
25.0153
26.2665
28.2516
31.0629
34.7991
39.5504
45.3809
52.3124
60.31
69.2736
79.0358
89.369
100
100
89.3699
79.0375
69.2758
60.312
52.3131
45.3786
39.5423
34.781
31.028
28.1901
26.1638
24.8509
24.1693
24.0611
24.4952
25.4669
26.9924
29.1017
31.8273
35.1908
39.1848
43.7456
48.7113
53.7572
58.3385
61.8249
64.2761
65.9466
67.0721
67.8271
68.3315
68.6663
68.8862
69.0282
69.1167
69.1679
69.1913
69.1913
69.1679
69.1167
69.0282
68.8862
68.6663
68.3315
67.8271
67.0721
65.9466
64.2761
61.8249
58.3385
53.7572
48.7113
43.7456
39.1848
35.1909
31.8273
29.1017
26.9924
25.4669
24.4953
24.0612
24.1694
24.851
26.164
28.1902
31.0282
34.7812
39.5425
45.3788
52.3132
60.3121
69.2759
79.0376
89.37
100
100
89.3721
79.0416
69.2814
60.3184
52.3192
45.3826
39.5415
34.771
31.0024
28.1393
26.0738
24.7017
23.9333
23.7009
23.9617
24.6965
25.9055
27.6001
29.7923
32.4816
35.6386
39.1848
42.9695
46.7506
50.2075
53.0466
55.215
56.8
57.9278
58.7158
59.2585
59.6268
59.8729
60.0337
60.1349
60.1938
60.2208
60.2208
60.1938
60.1349
60.0337
59.8729
59.6268
59.2585
58.7158
57.9278
56.8
55.215
53.0466
50.2075
46.7506
42.9695
39.1848
35.6386
32.4816
29.7923
27.6001
25.9056
24.6966
23.9617
23.701
23.9334
24.7017
26.0739
28.1393
31.0025
34.7711
39.5416
45.3827
52.3193
60.3185
69.2814
79.0416
89.3721
100
100
89.376
79.0493
69.2924
60.3319
52.3339
45.3967
39.5522
34.7742
30.9919
28.106
26.0047
24.5781
23.7297
23.3827
23.4834
24.0003
24.9192
26.2364
27.9489
30.043
32.4816
35.1908
38.0501
40.8906
43.5172
45.7656
47.5731
48.9606
49.9901
50.7345
51.2612
51.6265
51.8746
52.0388
52.1432
52.2044
52.2325
52.2325
52.2044
52.1432
52.0388
51.8746
51.6265
51.2612
50.7345
49.9901
48.9606
47.5731
45.7656
43.5172
40.8906
38.0501
35.1908
32.4816
30.043
27.9489
26.2364
24.9192
24.0003
23.4834
23.3827
23.7297
24.5782
26.0047
28.106
30.992
34.7742
39.5522
45.3967
52.3339
60.3319
69.2924
79.0493
89.3761
100
100
89.3831
79.0631
69.3123
60.357
52.3627
45.4273
39.5817
34.7986
31.0053
28.1001
25.9674
24.4928
23.5734
23.1246
23.0834
23.4076
24.0714
25.0596
26.359
27.9489
29.7923
31.8273
33.9632
36.0845
38.0672
39.8091
41.2575
42.4087
43.2909
43.9468
44.4219
44.7578
44.9896
45.1449
45.2447
45.3035
45.3306
45.3306
45.3035
45.2447
45.1449
44.9896
44.7578
44.4219
43.9468
43.2909
42.4087
41.2575
39.8091
38.0672
36.0845
33.9632
31.8273
29.7923
27.9489
26.359
25.0596
24.0714
23.4076
23.0834
23.1246
23.5734
24.4929
25.9674
28.1001
31.0054
34.7986
39.5817
45.4273
52.3628
60.357
69.3123
79.0631
89.3831
100
100
89.3951
79.0868
69.3467
60.4009
52.4143
45.4842
39.641
34.8561
31.0555
28.1351
25.9767
24.4616
23.4817
22.9459
22.7836
22.9437
23.3916
24.1036
25.0596
26.2364
27.6001
29.1017
30.6749
32.2408
33.7181
35.0395
36.1644
37.0816
37.8021
38.3501
38.755
39.0463
39.2501
39.3883
39.4779
39.531
39.5557
39.5557