# vtk DataFile Version 2.0
LBE two cylinders
ASCII
DATASET STRUCTURED_POINTS
DIMENSIONS 76 76 1
ASPECT_RATIO 1 1 1
ORIGIN 0 0 0
POINT_DATA 5776
SCALARS temp double 1
LOOKUP_TABLE default
100
100
100
100
100
100
100
100
100
100
100
100
100
100
100
100
100
100
100
100
100
100
100
100
100
100
-300
-300
-300
-300
-300
-300
-300
-300
-300
-300
-300
-300
-300
-300
100
100
100
100
100
100
100
100
100
100
100
100
100
100
100
100
100
100
100
100
100
100
100
100
100
100
-300
-300
-300
-300
-300
-300
-300
-300
-300
-300
100
99.1516
98.3192
97.518
96.7621
96.0641
95.4347
94.8826
94.4145
94.0353
93.7485
93.5562
93.4598
93.4598
93.5562
93.7485
94.0353
94.4145
94.8826
95.4347
96.0641
96.7621
97.518
98.3192
99.1516
100
-300
-300
-300
-300
-300
-300
-300
-300
-300
-300
-300
-300
-300
-300
100
99.1583
98.3322
97.5369
96.7862
96.0927
95.4668
94.9171
94.4505
94.0717
93.7844
93.5908
93.4924
93.4898
93.5833
93.7724
94.056
94.432
94.8971
95.4465
96.0733
96.7691
97.5229
98.3224
99.1532
100
-300
-300
-300
-300
-300
-300
-300
-300
-300
-300
100
98.3176
96.6668
95.0778
93.5788
92.1946
90.9465
89.8516
88.9233
88.1713
87.6026
87.2213
87.0301
87.0301
87.2213
87.6026
88.1713
88.9233
89.8516
90.9465
92.1946
93.5788
95.0778
96.6668
98.3176
100
-300
-300
-300
-300
-300
-300
-300
-300
-300
-300
-300
-300
-300
-300
100
98.3319
96.6949
95.1187
93.6311
92.2565
91.0159
89.9263
89.0011
88.2501
87.6802
87.296
87.1004
87.0949
87.2798
87.6542
88.216
88.9612
89.883
90.9719
92.2145
93.5938
95.0885
96.6736
98.321
100
-300
-300
-300
-300
-300
-300
-300
-300
-300
-300
100
97.5115
95.0697
92.7194
90.5021
88.4547
86.6085
84.989
83.6159
82.5037
81.6624
81.0984
80.8156
80.8156
81.0984
81.6624
82.5037
83.6159
84.989
86.6085
88.4547
90.5021
92.7194
95.0697
97.5115
100
-300
-300
-300
-300
-300
-300
-300
-300
-300
-300
-300
-300
-300
-300
100
97.5358
95.1173
92.7887
90.5908
88.5596
86.7263
85.1158
83.748
82.6373
81.7941
81.2252
80.9349
80.9255
81.1975
81.7499
82.5794
83.68
85.042
86.6513
88.4883
90.5274
92.7374
95.0812
97.5171
100
-300
-300
-300
-300
-300
-300
-300
-300
-300
-300
100
96.7455
93.552
90.4783
87.5786
84.901
82.4865
80.3685
78.5728
77.1182
76.0179
75.2804
74.9105
74.9105
75.2804
76.0179
77.1182
78.5728
80.3685
82.4865
84.901
87.5786
90.4783
93.552
96.7455
100
-300
-300
-300
-300
-300
-300
-300
-300
-300
-300
-300
-300
-300
-300
100
96.7834
93.6264
90.5866
87.717
85.0648
82.6704
80.5665
78.779
77.3268
76.2236
75.4783
75.0967
75.0819
75.4349
76.1543
77.236
78.6724
80.4509
82.5529
84.953
87.6178
90.5062
93.5699
96.7542
100
-300
-300
-300
-300
-300
-300
-300
-300
-300
-300
100
96.0299
92.1343
88.3847
84.8474
81.5811
78.6358
76.0521
73.8615
72.0871
70.7448
69.8452
69.394
69.394
69.8452
70.7448
72.0871
73.8615
76.0521
78.6358
81.5811
84.8474
88.3847
92.1343
96.0299
100
-300
-300
-300
-300
-300
-300
-300
-300
-300
-300
-300
-300
-300
-300
100
96.0868
92.246
88.5473
85.0552
81.8271
78.9118
76.3494
74.1712
72.4004
71.0537
70.1424
69.6735
69.6512
70.0768
70.9491
72.2634
74.0104
76.175
78.7347
81.6584
84.9056
88.4261
92.1607
96.0428
100
-300
-300
-300
-300
-300
-300
-300
-300
-300
-300
100
95.3727
90.8321
86.4618
82.3389
78.5319
75.099
72.0875
69.5343
67.4662
65.9018
64.8531
64.3272
64.3272
64.8531
65.9018
67.4662
69.5343
72.0875
75.099
78.5319
82.3389
86.4618
90.8321
95.3727
100
-300
-300
-300
-300
-300
-300
-300
-300
-300
-300
-300
-300
-300
-300
100
95.456
90.9959
86.7002
82.6436
78.8926
75.5038
72.5237
69.9886
67.9257
66.3547
65.2888
64.7368
64.7039
65.1921
66.2004
67.7236
69.7514
72.2665
75.2427
78.644
82.4231
86.5215
90.8702
95.3912
100
-300
-300
-300
-300
-300
-300
-300
-300
-300
-300
100
94.7792
89.6563
84.7254
80.0737
75.7784
71.9052
68.5075
65.6268
63.2934
61.5284
60.3453
59.752
59.752
60.3453
61.5284
63.2934
65.6268
68.5075
71.9052
75.7784
80.0737
84.7254
89.6563
94.7792
100
-300
-300
-300
-300
-300
-300
-300
-300
-300
-300
-300
-300
-300
-300
100
94.8992
89.8921
85.0687
80.5126
76.298
72.4884
69.1359
66.2813
63.9555
62.1807
60.9726
60.3414
60.2937
60.8324
61.957
63.6624
65.9375
68.763
72.11
75.9378
80.1931
84.8099
89.71
94.8053
100
-300
-300
-300
-300
-300
-300
-300
-300
-300
-300
100
94.2522
88.6122
83.1837
78.0625
73.3337
69.0696
65.329
62.1576
59.5887
57.6456
56.3431
55.6899
55.6899
56.3431
57.6456
59.5887
62.1576
65.329
69.0696
73.3337
78.0625
83.1837
88.6122
94.2522
100
-300
-300
-300
-300
-300
-300
-300
-300
-300
-300
-300
-300
-300
-300
100
94.4224
88.9465
83.6705
78.6849
74.0706
69.8968
66.2203
63.0859
60.5277
58.5706
57.2322
56.5249
56.4567
57.0319
58.2509
60.109
62.5948
65.6878
69.3564
73.5563
78.2288
83.301
88.6867
94.2883
100
-300
-300
-300
-300
-300
-300
-300
-300
-300
-300
100
93.7922
87.7009
81.8379
76.3068
71.1996
66.5942
62.5543
59.1291
56.3547
54.2561
52.8493
52.1438
52.1438
52.8493
54.2561
56.3547
59.1291
62.5543
66.5942
71.1996
76.3068
81.8379
87.7009
93.7922
100
-300
-300
-300
-300
-300
-300
-300
-300
-300
-300
-300
-300
-300
-300
100
94.0299
88.168
82.5181
77.1767
72.2297
67.7507
63.8005
60.4271
57.6674
55.5489
54.0915
53.3097
53.2134
53.809
55.0981
57.0771
59.7348
63.05
66.9893
71.5052
76.5343
81.9978
87.8021
93.8412
100
-300
-300
-300
-300
-300
-300
-300
-300
-300
-300
100
93.3974
86.9186
80.6827
74.7999
69.3678
64.4695
60.1727
56.5297
53.5788
51.3467
49.8505
49.1002
49.1002
49.8505
51.3467
53.5788
56.5297
60.1727
64.4695
69.3678
74.7999
80.6827
86.9186
93.3974
100
-300
-300
-300
-300
-300
-300
-300
-300
-300
-300
-300
-300
-300
-300
100
93.7249
87.5621
81.6199
75.9986
70.7877
66.0639
61.8908
58.3193
55.3885
53.1285
51.5616
50.7049
50.5709
51.1682
52.5009
54.5669
57.3559
60.8468
65.005
69.7803
75.1056
80.8968
87.0537
93.4625
100
-300
-300
-300
-300
-300
-300
-300
-300
-300
-300
100
93.0641
86.2583
79.7077
73.5279
67.8217
62.6763
58.1626
54.3357
51.2359
48.8912
47.3195
46.5313
46.5313
47.3195
48.8912
51.2359
54.3357
58.1626
62.6763
67.8217
73.5279
79.7077
86.2583
93.0641
100
-300
-300
-300
-300
-300
-300
-300
-300
-300
-300
-300
-300
-300
-300
100
93.5091
87.1328
80.9815
75.1575
69.7523
64.8445
60.4995
56.7699
53.6971
51.3135
49.6443
48.7096
48.5253
49.1032
50.4504
52.5675
55.4458
59.065
63.3901
68.369
73.9316
79.989
86.435
93.1491
100
-300
-300
-300
-300
-300
-300
-300
-300
-300
-300
100
92.7875
85.7103
78.8985
72.4723
66.5385
61.1879
56.4943
52.5149
49.2915
46.8533
45.219
44.3993
44.3993
45.219
46.8533
49.2915
52.5149
56.4943
61.1879
66.5385
72.4723
78.8985
85.7103
92.7875
100
-300
-300
-300
-300
-300
-300
-300
-300
-300
-300
-300
-300
-300
-300
100
93.3839
86.8825
80.6064
74.6579
69.1286
64.0975
59.6307
55.7819
52.5943
50.1026
48.3353
47.3163
47.0656
47.5996
48.9295
51.0594
53.9836
57.6832
62.1237
67.252
72.9953
79.2607
85.9367
92.896
100
-300
-300
-300
-300
-300
-300
-300
-300
-300
-300
100
92.5618
85.2631
78.2381
71.6108
65.4913
59.9733
55.1328
51.0288
47.7046
45.1901
43.5046
42.6594
42.6594
43.5046
45.1901
47.7046
51.0288
55.1328
59.9733
65.4913
71.6108
78.2381
85.2631
92.5618
100
-300
-300
-300
-300
-300
-300
-300
-300
-300
-300
-300
-300
-300
-300
100
93.3505
86.8135
80.4976
74.5032
68.9202
63.8265
59.2874
55.3567
52.0791
49.4918
47.627
46.5132
46.1761
46.6378
47.9152
50.0172
52.9421
56.6739
61.1791
66.4045
72.2751
78.6947
85.5465
92.697
100
-300
-300
-300
-300
-300
-300
-300
-300
-300
-300
100
92.3806
84.9041
77.708
70.9193
64.6508
58.9983
54.04
49.8361
46.4309
43.8552
42.1287
41.2628
41.2628
42.1287
43.8552
46.4309
49.8361
54.04
58.9983
64.6508
70.9193
77.708
84.9041
92.3806
100
-300
-300
-300
-300
-300
-300
-300
-300
-300
-300
-300
-300
-300
-300
100
93.4098
86.9278
80.6581
74.6974
69.1318
64.036
59.4733
55.4968
52.1516
49.4777
47.5115
46.2877
45.8392
46.1956
47.3811
49.4114
52.29
56.0049
60.5249
65.7971
71.7454
78.2703
85.25
92.5445
100
-300
-300
-300
-300
-300
-300
-300
-300
-300
-300
100
92.2376
84.6208
77.2896
70.3735
63.9873
58.2288
53.1774
48.8946
45.4255
42.8015
41.0426
40.1605
40.1605
41.0426
42.8015
45.4255
48.8946
53.1774
58.2288
63.9873
70.3735
77.2896
84.6208
92.2376
100
-300
-300
-300
-300
-300
-300
-300
-300
-300
-300
-300
-300
-300
-300
100
93.5631
87.2278
81.0918
75.2453
69.7689
64.7323
60.1947
56.2071
52.8145
50.0591
47.9829
46.6281
46.0371
46.2493
47.2987
49.2096
51.9925
55.6405
60.1259
65.3971
71.3772
77.9639
85.0306
92.4301
100
-300
-300
-300
-300
-300
-300
-300
-300
-300
-300
100
92.1266
84.4008
76.9647
69.9497
63.4722
57.6313
52.5077
48.1637
44.645
41.9835
40.1994
39.3047
39.3047
40.1994
41.9835
44.645
48.1637
52.5077
57.6313
63.4722
69.9497
76.9647
84.4008
92.1266
100
-300
-300
-300
-300
-300
-300
-300
-300
-300
-300
-300
-300
-300
-300
100
93.8116
87.7162
81.8026
76.1528
70.8393
65.9244
61.4615
57.4971
54.0749
51.2393
49.0385
47.5247
46.7526
46.775
47.6382
49.3773
52.0119
55.5417
59.9433
65.1676
71.1377
77.7488
84.8691
92.3436
100
-300
-300
-300
-300
-300
-300
-300
-300
-300
-300
100
92.0418
84.2328
76.7167
69.6261
63.0788
57.1751
51.9963
47.6055
44.049
41.3588
39.5556
38.6512
38.6512
39.5556
41.3588
44.049
47.6055
51.9963
57.1751
63.0788
69.6261
76.7167
84.2328
92.0418
100
-300
-300
-300
-300
-300
-300
-300
-300
-300
-300
-300
-300
-300
-300
100
94.1566
88.3954
82.7949
77.4264
72.352
67.6243
63.2877
59.3817
55.9464
53.0274
50.6803
48.9706
47.9697
47.7479
48.3676
49.8774
52.3074
55.6657
59.9344
65.0677
70.9898
77.5938
84.7429
92.2733
100
-300
-300
-300
-300
-300
-300
-300
-300
-300
-300
100
91.9781
84.1066
76.5304
69.383
62.7834
56.8324
51.6122
47.1863
43.6013
40.8896
39.072
38.1604
38.1604
39.072
40.8896
43.6013
47.1863
51.6122
56.8324
62.7834
69.383
76.5304
84.1066
91.9781
100
-300
-300
-300
-300
-300
-300
-300
-300
-300
-300
-300
-300
-300
-300
100
94.5985
89.2671
84.0718
79.0717
74.3164
69.8457
65.6913
61.8819
58.4498
55.4396
52.9155
50.9614
49.672
49.1412
49.4518
50.6686
52.8341
55.9654
60.0514
65.0509
70.8903
77.4622
84.625
92.2045
100
-300
-300
-300
-300
-300
-300
-300
-300
-300
-300
100
91.931
84.0134
76.3927
69.2034
62.5651
56.5792
51.3284
46.8766
43.2706
40.543
38.7146
37.7977
37.7977
38.7146
40.543
43.2706
46.8765
51.3284
56.5792
62.5651
69.2034
76.3927
84.0134
91.931
100
-300
-300
-300
-300
-300
-300
-300
-300
-300
-300
-300
-300
-300
-300
100
95.1367
90.3304
85.6338
81.0922
76.7405
72.6031
68.6947
65.0266
61.6163
58.5023
55.7579
53.4942
51.8407
50.9233
50.85
51.7042
53.5412
56.3878
60.2403
65.0635
70.7883
77.3089
84.4806
92.1181
100
-300
-300
-300
-300
-300
-300
-300
-300
-300
-300
100
91.8968
83.9456
76.2926
69.0729
62.4064
56.3952
51.1221
46.6514
43.0302
40.291
38.4549
37.5341
37.5341
38.4549
40.291
43.0301
46.6514
51.1221
56.3952
62.4064
69.0729
76.2926
83.9456
91.8968
100
-300
-300
-300
-300
-300
-300
-300
-300
-300
-300
-300
-300
-300
-300
100
95.7687
91.581
87.4762
83.4852
79.6276
75.9091
72.3229
68.854
65.4924
62.2575
59.2297
56.5659
54.4504
53.0532
52.5121
52.929
54.3712
56.8736
60.4403
65.0435
70.6219
77.0763
84.2631
91.9873
100
-300
-300
-300
-300
-300
-300
-300
-300
-300
-300
100
91.8724
83.8972
76.2211
68.9795
62.293
56.2636
50.9746
46.4904
42.8582
40.1108
38.2692
37.3456
37.3456
38.2691
40.1107
42.8581
46.4903
50.9745
56.2635
62.2929
68.9795
76.221
83.8971
91.8723
100
-300
-300
-300
-300
-300
-300
-300
-300
-300
-300
-300
-300
-300
-300
100
96.4889
93.0089
89.5864
86.2391
82.9713
79.7699
76.6019
73.415
70.1496
66.7754
63.365
60.1679
57.4613
55.4741
54.3743
54.2776
55.2583
57.3568
60.5833
64.9193
70.316
76.6888
83.9063
91.7712
100
-300
-300
-300
-300
-300
-300
-300
-300
-300
-300
100
91.8552
83.8631
76.1707
68.9139
62.2131
56.171
50.8708
46.3771
42.7372
39.984
38.1385
37.2129
37.2129
38.1384
39.9839
42.7371
46.3769
50.8706
56.1708
62.213
68.9137
76.1706
83.863
91.8551
100
-300
-300
-300
-300
-300
-300
-300
-300
-300
-300
-300
-300
-300
-300
100
97.2881
94.5963
91.9405
89.3273
86.749
84.1768
81.5516
78.7747
75.7037
72.1866
68.2146
64.274
60.8051
58.1031
56.3534
55.6719
56.1298
57.7666
60.5963
64.6106
69.7788
76.044
83.3088
91.3995
100
-300
-300
-300
-300
-300
-300
-300
-300
-300
-300
100
91.8432
83.8395
76.1358
68.8684
62.1578
56.1068
50.7989
46.2986
42.6534
39.8961
38.0479
37.121
37.121
38.0478
39.896
42.6532
46.2984
50.7986
56.1066
62.1576
68.8681
76.1356
83.8393
91.8432
100
-300
-300
-300
-300
-300
-300
-300
-300
-300
-300
-300
-300
-300
-300
100
98.1526
96.3166
94.5
92.7027
90.9116
89.0912
87.1686
85.0049
82.3465
78.7718
73.8403
68.8046
64.3569
60.8172
58.3431
57.0227
56.9089
58.0324
60.4071
64.0336
68.9036
75.0031
82.3069
90.7355
100
-300
-300
-300
-300
-300
-300
-300
-300
-300
-300
100
91.8351
83.8234
76.1121
68.8374
62.1201
56.0631
50.7499
46.2451
42.5963
39.8362
37.9862
37.0583
37.0583
37.986
39.836
42.5959
46.2447
50.7495
56.0627
62.1197
68.837
76.1117
83.8231
91.835
100
-300
-300
-300
-300
-300
-300
-300
-300
-300
-300
-300
-300
-300
-300
100
99.064
98.133
97.2099
96.2932
95.3725
94.4221
93.3857
92.1375
90.3731
87.2629
80.2357
73.5321
67.8916
63.4411
60.2142
58.2342
57.5219
58.0924
59.9544
63.113
67.5789
73.3862
80.6254
89.469
100
-300
-300
-300
-300
-300
-300
-300
-300
-300
-300
100
91.8297
83.8126
76.0961
68.8166
62.0948
56.0338
50.717
46.2092
42.5579
39.796
37.9447
37.0162
37.0161
37.9444
39.7956
42.5573
46.2085
50.7163
56.033
62.0941
68.8159
76.0956
83.8122
91.8295
100
-300
-300
-300
-300
-300
-300
-300
-300
-300
-300
-300
-300
-300
-300
100
100
100
100
100
100
100
100
100
100
100
86.8098
77.8632
71.0409
65.7546
61.83
59.2182
57.9097
57.9047
59.2034
61.806
65.7227
71.0034
77.8245
86.7789
100
100
100
100
100
100
100
100
100
100
100
100
91.8261
83.8054
76.0856
68.8028
62.0781
56.0144
50.6952
46.1854
42.5325
39.7693
37.9171
36.9881
36.988
37.9166
39.7686
42.5315
46.1843
50.694
56.0131
62.0769
68.8017
76.0847
83.8048
91.8257
100
-300
-300
-300
-300
-300
-300
-300
-300
-300
-300
-300
-300
-300
-300
-300
-300
-300
-300
-300
-300
-300
-300
-300
-300
100
89.4736
80.6272
73.3802
67.5622
63.0846
59.9138
58.04
57.4584
58.1608
60.1324
63.3529
67.7999
73.4409
80.1508
87.1905
90.3072
92.0769
93.3307
94.3732
95.3304
96.2586
97.1834
98.115
99.0549
100
100
91.8237
83.8008
76.0787
68.7938
62.0672
56.0017
50.681
46.1698
42.5158
39.7517
37.8989
36.9696
36.9693
37.8982
39.7505
42.5142
46.168
50.6789
55.9996
62.0652
68.792
76.0772
83.7997
91.8232
100
-300
-300
-300
-300
-300
-300
-300
-300
-300
-300
-300
-300
-300
-300
-300
-300
-300
-300
-300
-300
-300
-300
-300
-300
100
90.7221
82.2777
74.9562
68.8381
63.9495
60.3054
57.9145
56.7766
56.8783
58.1892
60.6567
64.1932
68.6415
73.6823
78.6226
82.2065
84.875
87.0501
88.9858
90.8209
92.6282
94.4428
96.2779
98.1331
100
100
91.8222
83.7978
76.0743
68.788
62.0601
55.9935
50.6717
46.1596
42.5048
39.7402
37.8869
36.9572
36.9568
37.8856
39.7382
42.5022
46.1566
50.6684
55.99
62.0568
68.7851
76.0718
83.7961
91.8213
100
-300
-300
-300
-300
-300
-300
-300
-300
-300
-300
-300
-300
-300
-300
-300
-300
-300
-300
-300
-300
-300
-300
-300
-300
100
91.369
83.2473
75.9516
69.6561
64.4592
60.4186
57.5653
55.9084
55.434
56.1029
57.8442
60.5422
64.0118
67.9578
71.9394
75.4694
78.5562
81.352
83.999
86.5959
89.2014
91.844
94.531
97.2552
100
100
91.8212
83.7959
76.0714
68.7843
62.0555
55.9881
50.6656
46.1529
42.4975
39.7323
37.8786
36.9486
36.9479
37.8766
39.7292
42.4934
46.148
50.6602
55.9826
62.0502
68.7795
76.0675
83.7931
91.8198
100
-300
-300
-300
-300
-300
-300
-300
-300
-300
-300
-300
-300
-300
-300
-300
-300
-300
-300
-300
-300
-300
-300
-300
-300
100
91.7203
83.8051
76.5387
70.1193
64.6793
60.304
57.0431
54.9154
53.911
53.99
55.0781
57.0599
59.7673
62.9715
66.3948
69.7876
73.0767
76.2925
79.4942
82.7337
86.0438
89.4367
92.9075
96.4378
100
100
91.8206
83.7946
76.0696
68.7818
62.0525
55.9845
50.6615
46.1482
42.4923
39.7266
37.8724
36.942
36.9409
37.8693
39.7217
42.4857
46.1404
50.6529
55.9757
62.044
68.7742
76.0633
83.7902
91.8183
100
-300
-300
-300
-300
-300
-300
-300
-300
-300
-300
-300
-300
-300
-300
-300
-300
-300
-300
-300
-300
-300
-300
-300
-300
100
91.9097
84.1092
76.8489
70.3251
64.6826
60.0218
56.4048
53.8599
52.3836
51.9413
52.4657
53.8551
55.9717
58.6454
61.6918
64.9537
68.3502
71.8619
75.4982
79.2735
83.1941
87.2531
91.43
95.6925
100
100
91.8202
83.7938
76.0683
68.7801
62.0503
55.9819
50.6584
46.1446
42.4881
39.7219
37.8671
36.9361
36.9344
37.8623
39.7141
42.4779
46.1324
50.6449
55.9681
62.037
68.7682
76.0585
83.7868
91.8166
100
-300
-300
-300
-300
-300
-300
-300
-300
-300
-300
-300
-300
-300
-300
-300
-300
-300
-300
-300
-300
-300
-300
-300
-300
100
92.0041
84.2548
76.9757
70.3539
64.5362
59.6297
55.7045
52.7969
50.9109
50.0203
50.0698
50.9762
52.6314
54.9094
57.6804
60.8333
64.2942
68.0244
72.0055
76.2257
80.6688
85.3094
90.1107
95.0259
100
100
91.8199
83.7931
76.0673
68.7788
62.0486
55.9797
50.6556
46.1413
42.4842
39.7172
37.8616
36.9297
36.9272
37.8541
39.7052
42.4683
46.1224
50.6349
55.9583
62.0279
68.7602
76.0521
83.7823
91.8143
100
-300
-300
-300
-300
-300
-300
-300
-300
-300
-300
-300
-300
-300
-300
-300
-300
-300
-300
-300
-300
-300
-300
-300
-300
100
92.0409
84.3011
76.9845
70.268
64.2958
59.1775
54.9881
51.7701
49.5352
48.2669
47.9228
48.4382
49.7301
51.7046
54.2667
57.3323
60.8367
64.7346
68.9928
73.5816
78.4675
83.6088
88.9535
94.4403
100
100
91.8196
83.7926
76.0664
68.7775
62.0469
55.9775
50.6528
46.1377
42.4797
39.7117
37.855
36.9218
36.9179
37.8436
39.6934
42.4555
46.1089
50.621
55.9447
62.0152
68.749
76.043
83.776
91.811
100
-300
-300
-300
-300
-300
-300
-300
-300
-300
-300
-300
-300
-300
-300
-300
-300
-300
-300
-300
-300
-300
-300
-300
-300
100
92.0426
84.2863
76.9204
70.113
64.0043
58.7041
54.2904
50.8107
48.2837
46.7019
46.0356
46.2361
47.2409
48.9794
51.3801
54.3769
57.9138
61.9441
66.4266
71.32
76.5778
82.1446
87.9552
93.9344
100
100
91.8193
83.792
76.0655
68.7762
62.0451
55.9749
50.6495
46.1334
42.4741
39.7047
37.8462
36.9112
36.9054
37.8291
39.677
42.4375
46.0897
50.6014
55.9253
61.9969
68.7329
76.0299
83.7667
91.8062
100
-300
-300
-300
-300
-300
-300
-300
-300
-300
-300
-300
-300
-300
-300
-300
-300
-300
-300
-300
-300
-300
-300
-300
-300
100
92.0233
84.2351
76.8141
69.921
63.6925
58.2373
53.6354
49.9379
47.1697
45.3316
44.4045
44.3532
45.1311
46.6852
48.9604
51.9039
55.4668
59.6032
64.268
69.4121
74.9793
80.9034
87.1074
93.5044
100
100
91.819
83.7913
76.0644
68.7746
62.0427
55.9717
50.6451
46.1276
42.4667
39.6952
37.8344
36.8967
36.888
37.8088
39.654
42.412
46.0625
50.5732
55.8973
61.9705
68.7094
76.0109
83.7533
91.7992
100
-300
-300
-300
-300
-300
-300
-300
-300
-300
-300
-300
-300
-300
-300
-300
-300
-300
-300
-300
-300
-300
-300
-300
-300
100
91.9917
84.1631
76.6853
69.7133
63.3804
57.7944
53.0363
49.1604
46.1961
44.1512
43.0154
42.7645
43.3643
44.7746
46.9527
49.8555
53.4401
57.6624
62.4752
67.8243
73.6464
79.8666
86.3983
93.1445
100
100
91.8186
83.7905
76.063
68.7724
62.0397
55.9675
50.6394
46.1199
42.4566
39.6822
37.818
36.8766
36.8639
37.7805
39.6216
42.3761
46.0238
50.533
55.8573
61.9326
68.6756
75.9833
83.7337
91.7891
100
-300
-300
-300
-300
-300
-300
-300
-300
-300
-300
-300
-300
-300
-300
-300
-300
-300
-300
-300
-300
-300
-300
-300
-300
100
91.953
84.0796
76.5456
69.5018
63.0789
57.3838
52.4979
48.4777
45.3565
43.1475
41.8473
41.4402
41.9015
43.2008
45.3046
48.1773
51.7806
56.0726
61.0051
66.5207
72.5505
79.0131
85.8141
92.8478
100
100
91.8181
83.7894
76.0612
68.7697
62.0357
55.9619
50.6316
46.1095
42.4429
39.6646
37.7958
36.8491
36.8306
37.7412
39.5765
42.3257
45.9693
50.4761
55.8004
61.8784
68.6272
75.9437
83.7056
91.7745
100
-300
-300
-300
-300
-300
-300
-300
-300
-300
-300
-300
-300
-300
-300
-300
-300
-300
-300
-300
-300
-300
-300
-300
-300
100
91.9096
83.989
76.4003
69.2915
62.7916
57.0062
52.0173
47.8826
44.6383
42.3016
40.8744
40.3474
40.7029
41.9181
43.9663
46.8175
50.4375
54.7862
59.8151
65.4646
71.6621
78.3207
85.3398
92.6067
100
100
91.8174
83.7879
76.0588
68.7661
62.0304
55.9545
50.6214
46.0957
42.4247
39.6409
37.7657
36.8117
36.7852
37.6874
39.5144
42.256
45.8935
50.3966
55.7203
61.8018
68.5584
75.8871
83.6653
91.7535
100
-300
-300
-300
-300
-300
-300
-300
-300
-300
-300
-300
-300
-300
-300
-300
-300
-300
-300
-300
-300
-300
-300
-300
-300
100
91.862
83.8917
76.2493
69.0814
62.5153
56.6561
51.5855
47.3622
44.0239
41.5906
40.0681
39.4515
39.7287
40.8821
42.8902
45.7274
49.3628
53.7578
58.8641
64.6205
70.9516
77.7667
84.9601
92.4138
100
100
91.8165
83.7861
76.0557
68.7614
62.0236
55.9448
50.6081
46.0777
42.4006
39.6096
37.7257
36.7618
36.7243
37.6148
39.43
42.1607
45.7893
50.2866
55.6089
61.6945
68.4615
75.8072
83.6081
91.7237
100
-300
-300
-300
-300
-300
-300
-300
-300
-300
-300
-300
-300
-300
-300
-300
-300
-300
-300
-300
-300
-300
-300
-300
-300
100
91.8087
83.7849
76.0884
68.8652
62.2419
56.3228
51.1891
46.8994
43.4923
40.9893
39.3985
38.7183
38.9402
40.0506
42.032
44.8619
48.5119
52.9451
58.1132
63.9543
70.391
77.3295
84.6606
92.2615
100
100
91.8155
83.7837
76.0518
68.7554
62.0149
55.9325
50.5909
46.0543
42.3694
39.5688
37.6734
36.6961
36.6436
37.5181
39.317
42.0323
45.6477
50.1361
55.4554
61.5456
68.3262
75.6948
83.5274
91.6815
100
-300
-300
-300
-300
-300
-300
-300
-300
-300
-300
-300
-300
-300
-300
-300
-300
-300
-300
-300
-300
-300
-300
-300
-300
100
91.7466
83.6625
75.9089
68.632
61.9582
55.9909
50.8103
46.4741
43.0205
40.4713
38.8359
38.1145
38.301
39.3847
41.3507
44.1793
47.8441
52.3092
57.527
63.435
69.9543
76.9891
84.4273
92.143
100
100
91.8141
83.7808
76.047
68.748
62.004
55.9169
50.5692
46.0246
42.3296
39.5165
37.606
36.611
36.5386
37.3913
39.1678
41.8614
45.458
49.9326
55.246
61.3408
68.1385
75.5377
83.414
91.6219
100
-300
-300
-300
-300
-300
-300
-300
-300
-300
-300
-300
-300
-300
-300
-300
-300
-300
-300
-300
-300
-300
-300
-300
-300
100
91.6708
83.5152
75.6977
68.366
61.6465
55.6412
50.4284
46.0638
42.584
40.0101
38.3512
37.6085
37.7772
38.8485
40.8096
43.6427
47.3229
51.8157
57.0737
63.0344
69.6181
76.7273
84.2481
92.0519
100
100
91.8125
83.7773
76.0411
68.7389
61.9906
55.8977
50.5423
45.9877
42.2799
39.4507
37.5207
36.5028
36.4039
37.2277
38.9737
41.6373
45.2068
49.6606
54.9632
61.0612
67.8796
75.3191
83.2547
91.5378
100
-300
-300
-300
-300
-300
-300
-300
-300
-300
-300
-300
-300
-300
-300
-300
-300
-300
-300
-300
-300
-300
-300
-300
-300
100
91.5739
83.3293
75.4364
68.046
61.284
55.2503
50.0196
45.6443
42.158
39.5795
37.917
37.1713
37.3384
38.4105
40.3763
43.2195
46.9166
51.4342
56.7255
62.7281
69.3617
76.5281
84.1118
91.9827
100
100
91.8105
83.7731
76.034
68.728
61.9745
55.8745
50.5096
45.9425
42.2187
39.3694
37.4147
36.3673
36.2344
37.02
38.7253
41.3477
44.8788
49.3014
54.5852
60.6827
67.5245
75.0154
83.0313
91.4189
100
-300
-300
-300
-300
-300
-300
-300
-300
-300
-300
-300
-300
-300
-300
-300
-300
-300
-300
-300
-300
-300
-300
-300
-300
100
91.4451
83.0851
75.1
67.6442
60.8424
54.7904
49.5574
45.1901
41.7173
39.1546
37.5079
36.777
36.9577
38.0431
40.0228
42.8818
46.5981
51.139
56.4587
62.495
69.1677
76.3779
84.0093
91.9308
100
100
91.8083
83.7683
76.0258
68.7153
61.9555
55.847
50.4707
45.8884
42.145
39.2708
37.2855
36.201
36.0246
36.7609
38.4125
40.9792
44.4567
48.833
54.0851
60.174
67.0393
74.5936
82.7163
91.2496
100
-300
-300
-300
-300
-300
-300
-300
-300
-300
-300
-300
-300
-300
-300
-300
-300
-300
-300
-300
-300
-300
-300
-300
-300
100
91.2682
82.7546
74.6536
67.1239
60.2866
54.2295
49.0127
44.6748
41.2378
38.7124
37.1014
36.4029
36.6123
37.723
39.7257
42.6066
46.3447
50.9087
56.2536
62.3178
69.0213
76.2652
83.9328
91.892
100
100
91.8058
83.7629
76.0166
68.7008
61.9338
55.8153
50.4254
45.8251
42.0582
39.1539
37.131
36.0007
35.77
36.4437
38.0257
40.5184
43.9217
48.2304
53.4306
59.4953
66.3783
74.0064
82.2686
91.005
100
-300
-300
-300
-300
-300
-300
-300
-300
-300
-300
-300
-300
-300
-300
-300
-300
-300
-300
-300
-300
-300
-300
-300
-300
100
91.018
82.2953
74.0482
66.4372
59.5735
53.5307
48.3547
44.0722
40.6966
38.2322
36.6779
36.03
36.2832
37.4314
39.4661
42.3749
46.1382
50.726
56.0943
62.1824
68.9109
76.1809
83.8758
91.8633
100
100
91.8031
83.757
76.0065
68.6849
61.9096
55.7796
50.3741
45.7527
41.9581
39.0182
36.9503
35.7646
35.4673
36.063
37.5565
39.9525
43.2553
47.4671
52.585
58.5978
65.4805
73.1847
81.6229
90.6431
100
-300
-300
-300
-300
-300
-300
-300
-300
-300
-300
-300
-300
-300
-300
-300
-300
-300
-300
-300
-300
-300
-300
-300
-300
100
90.6521
81.6413
73.2134
65.5208
58.6513
52.6533
47.5517
43.3577
40.0735
37.6966
36.2218
35.6434
35.9559
37.1536
39.2294
42.1724
45.9645
50.5774
55.9684
62.0779
68.827
76.1177
83.8334
91.842
100
100
91.8004
83.751
75.996
68.668
61.8837
55.7409
50.3175
45.6722
41.8456
38.8643
36.7438
35.4926
35.1153
35.616
36.9994
39.2718
42.4414
46.5174
51.509
57.4238
64.2657
72.0274
80.6717
90.0863
100
-300
-300
-300
-300
-300
-300
-300
-300
-300
-300
-300
-300
-300
-300
-300
-300
-300
-300
-300
-300
-300
-300
-300
-300
100
90.0924
80.6841
72.0468
64.2929
57.4598
51.5548
46.5742
42.51
39.3528
37.093
35.7221
35.2329
35.6202
36.8795
39.0053
41.9886
45.8134
50.4532
55.8668
61.9959
68.7628
76.0702
83.802
91.8264
100
100
91.7979
83.7454
75.9859
68.6512
61.8571
55.7003
50.2574
45.5852
41.7229
38.6946
36.5138
35.1867
34.7159
35.1035
36.3533
38.472
41.4699
45.3615
50.1664
55.9115
62.6347
70.3878
79.2298
89.1749
100
-300
-300
-300
-300
-300
-300
-300
-300
-300
-300
-300
-300
-300
-300
-300
-300
-300
-300
-300
-300
-300
-300
-300
-300
100
89.1789
79.2381
70.4007
62.6527
55.9354
50.1967
45.399
41.5152
38.5254
36.415
35.1733
34.7933
35.2707
36.6031
38.7873
41.8169
45.6781
50.3466
55.7831
61.9309
68.7135
76.0347
83.7789
91.815
100
100
91.7959
83.7407
75.977
68.6357
61.8316
55.6601
50.1962
45.495
41.5933
38.5131
36.2649
34.8521
34.2744
34.5312
35.6237
37.5569
40.3407
43.9914
48.5339
54.0081
60.4802
68.0664
76.9735
87.5345
100
-300
-300
-300
-300
-300
-300
-300
-300
-300
-300
-300
-300
-300
-300
-300
-300
-300
-300
-300
-300
-300
-300
-300
-300
100
87.5371
76.979
68.0749
60.492
54.0237
48.5537
44.0158
40.3702
37.5916
35.6637
34.5765
34.3246
34.9066
36.3227
38.5731
41.6542
45.5552
50.254
55.7137
61.8794
68.6762
76.0086
83.7624
91.807
100
100
91.7949
83.738
75.9709
68.6236
61.8098
55.6233
50.1377
45.4057
41.4621
38.3258
36.0042
34.4973
33.8009
33.9105
34.8235
36.5408
39.0687
42.4197
46.6161
51.6954
57.7262
64.846
73.3706
84.1565
100
100
100
100
100
100
100
100
100
100
100
100
100
100
100
100
100
100
100
100
100
100
100
100
100
100
84.1583
73.3741
64.8514
57.7338
51.7054
46.6288
42.4354
39.0875
36.563
34.8491
33.9395
33.833
34.5321
36.0412
38.3641
41.501
45.4442
50.1746
55.6576
61.8403
68.6495
75.9911
83.7519
91.802
100
100
91.7957
83.7386
75.9696
68.6177
61.795
55.5942
50.0869
45.3236
41.3364
38.1412
35.742
34.1344
33.31
33.2593
33.9743
35.45
37.6858
40.6856
44.4595
49.0251
54.4123
60.6677
67.8486
75.9262
84.1564
87.5341
89.1743
90.0854
90.6416
91.0026
91.2458
91.413
91.5287
91.6081
91.6608
91.6929
91.7081
91.7081
91.6929
91.6608
91.6081
91.5287
91.413
91.2458
91.0026
90.6416
90.0854
89.1744
87.5343
84.1568
75.9275
67.8509
60.6711
54.4171
49.0315
44.4675
40.6955
37.6977
35.4641
33.9905
33.2776
33.3302
34.1563
35.7652
38.1654
41.3609
45.3479
50.1101
55.6158
61.8143
68.6339
75.9824
83.7473
91.8001
100
100
91.799
83.7444
75.9759
68.6215
61.7921
55.5786
50.0506
45.2566
41.2258
37.9706
35.4914
33.7793
32.821
32.6013
33.1057
34.3221
36.2407
38.854
42.1554
46.1362
50.7799
56.0468
61.8314
67.8485
73.3702
76.9729
79.2287
80.6699
81.62
82.2639
82.7089
83.0198
83.2372
83.3873
83.4874
83.5486
83.5777
83.5777
83.5486
83.4874
83.3873
83.2372
83.0198
82.709
82.2639
81.62
80.6699
79.2288
76.9731
73.3706
67.8494
61.8329
56.049
50.7829
46.1401
42.1604
38.8602
36.2481
34.3308
33.1158
32.6126
32.8336
33.7929
35.5058
37.9856
41.241
45.2717
50.065
55.592
61.804
68.6316
75.9839
83.7498
91.8018
100
100
91.8062
83.7578
75.9935
68.6401
61.807
55.5837
50.0376
45.215
41.142
37.8279
35.2689
33.4516
32.3574
31.9652
32.2537
33.2028
34.7933
37.0058
39.8177
43.198
47.0975
51.4316
56.0467
60.6674
64.8454
68.0655
70.3862
72.0248
73.1805
73.9997
74.5831
74.9991
75.2941
75.4999
75.638
75.7229
75.7632
75.7632
75.7229
75.638
75.4999
75.2941
74.9991
74.5831
73.9997
73.1805
72.0248
70.3863
68.0657
64.8458
60.668
56.0476
51.4329
47.0994
43.2005
39.8208
37.0096
34.7978
33.2081
32.2599
31.9722
32.3651
33.4599
35.2777
37.8371
41.1513
45.2242
50.0465
55.5919
61.8143
68.6463
75.9984
83.7611
91.8079
100
100
91.8189
83.782
76.0272
68.6797
61.8478
55.619
50.0591
45.2116
41.1
37.7301
35.0942
33.1744
31.9467
31.3842
31.4588
32.1428
33.4084
35.2257
37.56
40.3655
43.5771
47.0975
50.7797
54.4119
57.7255
60.479
62.6327
64.2625
65.4753
66.37
67.0263
67.5044
67.8488
68.0917
68.2562
68.3578
68.4063
68.4063
68.3578
68.2562
68.0917
67.8488
67.5044
67.0263
66.37
65.4753
64.2625
62.6328
60.4791
57.7257
54.4123
50.7803
47.0983
43.5783
40.367
37.5619
35.228
33.4111
32.1461
31.4625
31.3884
31.9514
33.1794
35.0995
37.7357
41.1056
45.2172
50.0644
55.624
61.8522
68.6835
76.0301
83.7841
91.8199
100
100
91.8391
83.8212
76.083
68.7485
61.9244
55.6966
50.1288
45.2623
41.1177
37.6976
34.9905
32.9741
31.6196
30.8942
30.764
31.1943
32.1501
33.5936
35.4821
37.7625
40.3655
43.1979
46.1359
49.0246
51.6946
54.0067
55.9092
57.4201
58.5919
59.4859
60.1592
60.6598
61.0262
61.2878
61.4664
61.5774
61.6306
61.6306
61.5774
61.4664
61.2878
61.0262
60.6598
60.1592
59.4859
58.5919
57.4201
55.9093
54.0068
51.6947
49.0249
46.1363
43.1984
40.3662
37.7634
35.4832
33.595
32.1517
31.1963
30.7662
30.8967
31.6223
32.9771
34.9937
37.7009
41.121
45.2656
50.132
55.6996
61.927
68.7508
76.0848
83.8224
91.8397
100
100
91.8694
83.8805
76.1687
68.8566
62.0494
55.8312
50.2638
45.3863
41.2166
37.7544
34.9845
32.8807
31.4096
30.5337
30.2134
30.4087
31.0786
32.1803
33.6665
35.482
37.5599
39.8176
42.1551
44.4589
46.6152
48.5324
50.1639
51.505
52.5786
53.4205
54.0692
54.5607
54.9258
55.1895
55.3712
55.4848
55.5394
55.5394
55.4848
55.3712
55.1895
54.9258
54.5607
54.0692
53.4205
52.5786
51.505
50.1639
48.5325
46.6153
44.4591
42.1553
39.8179
37.5603
35.4826
33.6672
32.1811
31.0796
30.4098
30.2147
30.5351
31.4112
32.8825
34.9864
37.7564
41.2186
45.3883
50.2657
55.8329
62.0509
68.8579
76.1698
83.8812
91.8697
100
100
91.913
83.9663
76.2937
69.0164
62.2379
56.0407
50.4847
45.6067
41.4223
37.9284
35.1068
32.9276
31.3536
30.343
29.852
29.8359
30.2499
31.0477
32.1803
33.5936
35.2257
37.0056
38.8537
40.6851
42.4188
43.9898
45.3589
46.5133
47.4605
48.22
48.8168
49.2764
49.6226