# vtk DataFile Version 2.0
LBE two cylinders
ASCII
DATASET STRUCTURED_POINTS
DIMENSIONS 76 76 1
ASPECT_RATIO 1 1 1
ORIGIN 0 0 0
POINT_DATA 5776
SCALARS temp double 1
LOOKUP_TABLE default
100
100
100
100
100
100
100
100
100
100
100
100
100
100
100
100
100
100
100
100
100
100
100
100
100
100
-300
-300
-300
-300
-300
-300
-300
-300
-300
-300
-300
-300
-300
-300
100
100
100
100
100
100
100
100
100
100
100
100
100
100
100
100
100
100
100
100
100
100
100
100
100
100
-300
-300
-300
-300
-300
-300
-300
-300
-300
-300
100
96.8239
93.8458
91.2269
89.0658
87.3915
86.1725
85.3377
84.7995
84.4728
84.2869
84.19
84.1493
84.1493
84.19
84.2869
84.4728
84.7995
85.3377
86.1725
87.3915
89.0658
91.2269
93.8458
96.8239
100
-300
-300
-300
-300
-300
-300
-300
-300
-300
-300
-300
-300
-300
-300
100
96.8239
93.8458
91.2269
89.0658
87.3915
86.1725
85.3377
84.7995
84.4728
84.2869
84.19
84.1493
84.1493
84.19
84.2869
84.4728
84.7995
85.3377
86.1725
87.3915
89.0658
91.2269
93.8458
96.8239
100
-300
-300
-300
-300
-300
-300
-300
-300
-300
-300
100
93.8458
88.0754
83.0008
78.8137
75.5697
73.208
71.5907
70.548
69.9152
69.555
69.3673
69.2885
69.2885
69.3673
69.555
69.9152
70.548
71.5907
73.208
75.5697
78.8137
83.0008
88.0754
93.8458
100
-300
-300
-300
-300
-300
-300
-300
-300
-300
-300
-300
-300
-300
-300
100
93.8458
88.0754
83.0008
78.8137
75.5697
73.208
71.5907
70.548
69.9152
69.555
69.3673
69.2886
69.2886
69.3673
69.555
69.9152
70.548
71.5907
73.208
75.5697
78.8137
83.0008
88.0754
93.8458
100
-300
-300
-300
-300
-300
-300
-300
-300
-300
-300
100
91.2269
83.0008
75.7671
69.7985
65.1745
61.8083
59.5033
58.0175
57.1157
56.6026
56.3351
56.2229
56.2229
56.3351
56.6026
57.1157
58.0175
59.5033
61.8083
65.1745
69.7985
75.7671
83.0008
91.2269
100
-300
-300
-300
-300
-300
-300
-300
-300
-300
-300
-300
-300
-300
-300
100
91.2269
83.0008
75.7671
69.7985
65.1745
61.8084
59.5034
58.0175
57.1157
56.6026
56.3351
56.2229
56.2229
56.3351
56.6026
57.1157
58.0175
59.5033
61.8083
65.1745
69.7985
75.7671
83.0008
91.2269
100
-300
-300
-300
-300
-300
-300
-300
-300
-300
-300
100
89.0658
78.8137
69.7985
62.3603
56.5982
52.4038
49.5319
47.6807
46.5574
45.9183
45.5851
45.4454
45.4454
45.5851
45.9183
46.5574
47.6807
49.5319
52.4038
56.5982
62.3603
69.7985
78.8137
89.0658
100
-300
-300
-300
-300
-300
-300
-300
-300
-300
-300
-300
-300
-300
-300
100
89.0658
78.8137
69.7985
62.3603
56.5982
52.4038
49.5319
47.6807
46.5574
45.9183
45.5852
45.4454
45.4454
45.5852
45.9183
46.5574
47.6807
49.5319
52.4038
56.5982
62.3603
69.7985
78.8137
89.0658
100
-300
-300
-300
-300
-300
-300
-300
-300
-300
-300
100
87.3915
75.5697
65.1745
56.5982
49.9548
45.1193
41.8087
39.6751
38.3805
37.644
37.2601
37.0992
37.0992
37.2601
37.644
38.3805
39.6751
41.8087
45.1193
49.9548
56.5982
65.1745
75.5697
87.3915
100
-300
-300
-300
-300
-300
-300
-300
-300
-300
-300
-300
-300
-300
-300
100
87.3915
75.5697
65.1745
56.5982
49.9549
45.1194
41.8088
39.6751
38.3805
37.644
37.2602
37.0992
37.0992
37.2602
37.644
38.3805
39.6751
41.8087
45.1193
49.9548
56.5982
65.1745
75.5697
87.3915
100
-300
-300
-300
-300
-300
-300
-300
-300
-300
-300
100
86.1725
73.2078
61.8082
52.4036
45.1191
39.8173
36.1879
33.849
32.43
31.6228
31.2022
31.0258
31.0258
31.2022
31.6228
32.43
33.849
36.1879
39.8173
45.1191
52.4036
61.8082
73.2078
86.1725
100
-300
-300
-300
-300
-300
-300
-300
-300
-300
-300
-300
-300
-300
-300
100
86.1725
73.208
61.8083
52.4038
45.1193
39.8175
36.1881
33.8492
32.4302
31.623
31.2024
31.0259
31.0259
31.2023
31.6228
32.43
33.849
36.1879
39.8173
45.1191
52.4036
61.8082
73.2078
86.1725
100
-300
-300
-300
-300
-300
-300
-300
-300
-300
-300
100
85.3375
71.5903
59.5028
49.5313
41.8081
36.1874
32.34
29.8608
28.3569
27.5015
27.0558
26.8689
26.8689
27.0558
27.5015
28.3569
29.8608
32.34
36.1874
41.8081
49.5313
59.5028
71.5903
85.3375
100
-300
-300
-300
-300
-300
-300
-300
-300
-300
-300
-300
-300
-300
-300
100
85.3377
71.5907
59.5033
49.5319
41.8088
36.1881
32.3407
29.8615
28.3575
27.502
27.0563
26.8693
26.8692
27.056
27.5016
28.3569
29.8608
32.34
36.1874
41.8081
49.5313
59.5028
71.5903
85.3375
100
-300
-300
-300
-300
-300
-300
-300
-300
-300
-300
100
84.799
70.547
58.0161
47.679
39.6731
33.847
29.8593
27.2899
25.7314
24.8451
24.3833
24.1897
24.1897
24.3833
24.8451
25.7314
27.2899
29.8593
33.847
39.6731
47.679
58.0161
70.547
84.799
100
-300
-300
-300
-300
-300
-300
-300
-300
-300
-300
-300
-300
-300
-300
100
84.7995
70.548
58.0174
47.6807
39.675
33.849
29.8613
27.2918
25.7331
24.8466
24.3846
24.1907
24.1904
24.3838
24.8454
25.7316
27.29
29.8594
33.8471
39.6731
47.679
58.016
70.547
84.799
100
-300
-300
-300
-300
-300
-300
-300
-300
-300
-300
100
84.4714
69.9125
57.1119
46.5527
38.3751
32.4243
28.3514
25.7273
24.1358
23.2307
22.7592
22.5615
22.5615
22.7592
23.2307
24.1358
25.7273
28.3514
32.4243
38.3751
46.5527
57.1119
69.9125
84.4714
100
-300
-300
-300
-300
-300
-300
-300
-300
-300
-300
-300
-300
-300
-300
100
84.4728
69.9151
57.1156
46.5572
38.3802
32.4296
28.3568
25.7324
24.1404
23.2347
22.7626
22.5642
22.5635
22.7606
23.2316
24.1364
25.7277
28.3516
32.4244
38.3751
46.5527
57.1119
69.9125
84.4714
100
-300
-300
-300
-300
-300
-300
-300
-300
-300
-300
100
84.2833
69.5481
56.5927
45.906
37.6299
31.6077
27.486
24.8307
23.2202
22.3044
21.8273
21.6273
21.6273
21.8273
22.3044
23.2202
24.8307
27.486
31.6077
37.6299
45.906
56.5927
69.5481
84.2833
100
-300
-300
-300
-300
-300
-300
-300
-300
-300
-300
-300
-300
-300
-300
100
84.2869
69.5549
56.6023
45.9177
37.6431
31.6215
27.4999
24.8439
23.2322
22.3149
21.8361
21.6342
21.6325
21.831
22.3069
23.2218
24.8316
27.4865
31.6079
37.63
45.906
56.5926
69.548
84.2833
100
-300
-300
-300
-300
-300
-300
-300
-300
-300
-300
100
84.1812
69.3503
56.3109
45.555
37.2255
31.1645
27.0165
24.3442
22.7235
21.8019
21.3219
21.1206
21.1206
21.3219
21.8019
22.7235
24.3442
27.0165
31.1645
37.2255
45.555
56.3109
69.3503
84.1812
100
-300
-300
-300
-300
-300
-300
-300
-300
-300
-300
-300
-300
-300
-300
100
84.1898
69.367
56.3344
45.5839
37.2579
31.1987
27.0507
24.3769
22.7534
21.828
21.3436
21.1378
21.1335
21.331
21.8081
22.7274
24.3465
27.0177
31.165
37.2256
45.5549
56.3107
69.3501
84.1811
100
-300
-300
-300
-300
-300
-300
-300
-300
-300
-300
100
84.1287
69.2486
56.166
45.3746
37.0177
30.9368
26.7753
24.0943
22.4684
21.5439
21.0623
20.8604
20.8604
21.0623
21.5439
22.4684
24.0943
26.7753
30.9368
37.0177
45.3746
56.166
69.2486
84.1287
100
-300
-300
-300
-300
-300
-300
-300
-300
-300
-300
-300
-300
-300
-300
100
84.149
69.2878
56.2213
45.4425
37.094
31.0174
26.856
24.1715
22.539
21.6056
21.1137
20.9011
20.891
21.084
21.5585
22.4776
24.0997
26.7781
30.938
37.0179
45.3742
56.1654
69.248
84.1283
100
-300
-300
-300
-300
-300
-300
-300
-300
-300
-300
100
84.1031
69.199
56.0954
45.2867
36.9165
30.8259
26.6578
23.9726
22.3442
21.4182
20.9359
20.7337
20.7337
20.9359
21.4182
22.3442
23.9726
26.6578
30.8259
36.9165
45.2867
56.0954
69.199
84.1031
100
-300
-300
-300
-300
-300
-300
-300
-300
-300
-300
-300
-300
-300
-300
100
84.1486
69.2869
56.2195
45.439
37.0879
31.0071
26.8397
24.1469
22.5038
21.5578
21.0522
20.8259
20.803
20.9852
21.4513
22.365
23.9847
26.664
30.8283
36.9165
45.2855
56.0937
69.1974
84.1022
100
-300
-300
-300
-300
-300
-300
-300
-300
-300
-300
100
84.0913
69.1761
56.0628
45.2461
36.8697
30.7746
26.6035
23.9164
22.2867
21.3601
20.8775
20.6751
20.6751
20.8775
21.3601
22.2867
23.9164
26.6035
30.7746
36.8697
45.2461
56.0628
69.1761
84.0913
100
-300
-300
-300
-300
-300
-300
-300
-300
-300
-300
-300
-300
-300
-300
100
84.1886
69.3639
56.3282
45.5721
37.237
31.1634
26.9943
24.2914
22.6308
21.6614
21.1288
20.8744
20.8248
20.9839
21.4314
22.3315
23.9422
26.6165
30.7794
36.8692
45.2427
56.0583
69.1721
84.0889
100
-300
-300
-300
-300
-300
-300
-300
-300
-300
-300
100
84.086
69.166
56.0484
45.2282
36.8491
30.7521
26.5796
23.8916
22.2615
21.3346
20.8518
20.6494
20.6494
20.8518
21.3346
22.2615
23.8916
26.5796
30.7521
36.8491
45.2282
56.0484
69.166
84.086
100
-300
-300
-300
-300
-300
-300
-300
-300
-300
-300
-300
-300
-300
-300
100
84.2843
69.5486
56.5894
45.8933
37.5993
31.5471
27.3802
24.6614
22.9689
21.955
21.3698
21.0601
20.9579
21.0708
21.4811
22.3532
23.9443
26.6056
30.7607
36.8466
45.2196
56.0375
69.1563
84.0804
100
-300
-300
-300
-300
-300
-300
-300
-300
-300
-300
100
84.0839
69.1618
56.0424
45.2207
36.8404
30.7427
26.5696
23.8813
22.2509
21.3239
20.8411
20.6386
20.6386
20.8411
21.3239
22.2509
23.8813
26.5696
30.7427
36.8404
45.2207
56.0424
69.1618
84.0839
100
-300
-300
-300
-300
-300
-300
-300
-300
-300
-300
-300
-300
-300
-300
100
84.4683
69.9037
57.0922
46.5125
38.2994
32.2913
28.1321
25.387
23.6375
22.542
21.859
21.4457
21.2443
21.2705
21.6106
22.4296
23.9829
26.6186
30.7568
36.8323
45.1998
56.0169
69.1393
84.0707
100
-300
-300
-300
-300
-300
-300
-300
-300
-300
-300
100
84.083
69.1601
56.04
45.2177
36.837
30.7389
26.5656
23.8771
22.2467
21.3196
20.8368
20.6343
20.6343
20.8368
21.3196
22.2467
23.8771
26.5656
30.7389
36.837
45.2177
56.04
69.1601
84.083
100
-300
-300
-300
-300
-300
-300
-300
-300
-300
-300
-300
-300
-300
-300
100
84.792
70.529
57.9781
47.605
39.5373
33.6107
29.4701
26.6833
24.8373
23.5996
22.7435
22.1454
21.7668
21.6379
21.8528
22.5775
24.0633
26.6525
30.7592
36.814
45.1695
55.9828
69.1099
84.0537
100
-300
-300
-300
-300
-300
-300
-300
-300
-300
-300
100
84.0826
69.1594
56.039
45.2166
36.8357
30.7374
26.5641
23.8756
22.2451
21.318
20.8351
20.6327
20.6327
20.8351
21.318
22.2451
23.8756
26.5641
30.7374
36.8357
45.2166
56.039
69.1594
84.0826
100
-300
-300
-300
-300
-300
-300
-300
-300
-300
-300
-300
-300
-300
-300
100
85.3262
71.5614
59.4423
49.4134
41.5906
35.8061
31.7051
28.8584
26.8589
25.3869
24.2398
23.328
22.648
22.2562
22.2599
22.8259
24.1983
26.7086
30.7607
36.7782
45.1107
55.916
69.0516
84.0196
100
-300
-300
-300
-300
-300
-300
-300
-300
-300
-300
100
84.0825
69.1592
56.0387
45.2162
36.8352
30.7369
26.5635
23.875
22.2445
21.3174
20.8345
20.6321
20.6321
20.8345
21.3174
22.2445
23.875
26.5635
30.7369
36.8352
45.2162
56.0387
69.1592
84.0825
100
-300
-300
-300
-300
-300
-300
-300
-300
-300
-300
-300
-300
-300
-300
100
86.1563
73.1665
61.7211
52.2326
44.8002
39.2504
35.2287
32.3068
30.081
28.2451
26.6319
25.2121
24.0445
23.2303
22.8972
23.2115
24.404
26.7877
30.7501
36.7037
44.9949
55.7846
68.9357
83.951
100
-300
-300
-300
-300
-300
-300
-300
-300
-300
-300
100
84.0825
69.1591
56.0386
45.216
36.835
30.7367
26.5633
23.8748
22.2443
21.3172
20.8343
20.6319
20.6319
20.8343
21.3172
22.2443
23.8748
26.5633
30.7367
36.835
45.216
56.0386
69.1591
84.0825
100
-300
-300
-300
-300
-300
-300
-300
-300
-300
-300
-300
-300
-300
-300
100
87.3707
75.5162
65.0609
56.3726
49.528
44.3474
40.4758
37.4811
34.9517
32.5838
30.2559
28.0472
26.1273
24.6697
23.8298
23.7687
24.6929
26.8855
30.7077
36.5563
44.7747
55.5336
68.7109
83.8158
100
-300
-300
-300
-300
-300
-300
-300
-300
-300
-300
100
84.0825
69.1591
56.0385
45.216
36.835
30.7367
26.5633
23.8747
22.2443
21.3172
20.8343
20.6318
20.6318
20.8343
21.3172
22.2443
23.8747
26.5633
30.7367
36.835
45.216
56.0385
69.1591
84.0825
100
-300
-300
-300
-300
-300
-300
-300
-300
-300
-300
-300
-300
-300
-300
100
89.0418
78.7518
69.6658
62.0934
56.085
51.4568
47.8549
44.8355
41.9511
38.8575
35.4669
32.0738
29.0444
26.6593
25.1032
24.5175
25.0668
26.9874
30.6016
36.2834
44.376
55.0722
68.2864
83.5537
100
-300
-300
-300
-300
-300
-300
-300
-300
-300
-300
100
84.0825
69.1591
56.0385
45.2159
36.835
30.7367
26.5633
23.8747
22.2442
21.3171
20.8342
20.6318
20.6318
20.8342
21.3171
22.2442
23.8747
26.5633
30.7367
36.835
45.2159
56.0385
69.1591
84.0825
100
-300
-300
-300
-300
-300
-300
-300
-300
-300
-300
-300
-300
-300
-300
100
91.2029
82.9386
75.6322
69.5234
64.6364
60.7925
57.6497
54.7473
51.5527
47.5595
42.5919
37.4546
32.8592
29.2159
26.7148
25.4475
25.5086
27.0658
30.386
35.8121
43.6897
54.2549
67.5019
83.0465
100
-300
-300
-300
-300
-300
-300
-300
-300
-300
-300
100
84.0825
69.1591
56.0385
45.2159
36.835
30.7367
26.5633
23.8747
22.2442
21.3171
20.8342
20.6318
20.6318
20.8342
21.3171
22.2442
23.8747
26.5633
30.7367
36.835
45.2159
56.0385
69.1591
84.0825
100
-300
-300
-300
-300
-300
-300
-300
-300
-300
-300
-300
-300
-300
-300
100
93.8261
88.0238
82.8882
78.5812
75.1071
72.3137
69.9026
67.4206
64.207
59.3233
51.8601
44.1607
37.4639
32.2359
28.5881
26.5056
25.9786
27.0813
30.0069
35.0548
42.5721
52.8625
66.0742
82.0465
100
-300
-300
-300
-300
-300
-300
-300
-300
-300
-300
100
84.0825
69.1591
56.0385
45.2159
36.835
30.7367
26.5633
23.8747
22.2442
21.3171
20.8342
20.6318
20.6318
20.8342
21.3171
22.2442
23.8747
26.5633
30.7367
36.835
45.2159
56.0385
69.1591
84.0825
100
-300
-300
-300
-300
-300
-300
-300
-300
-300
-300
-300
-300
-300
-300
100
96.8127
93.8164
91.1622
88.9311
87.1196
85.6357
84.2901
82.7467
80.3388
75.4374
63.2063
51.7594
42.4724
35.4552
30.5599
27.5959
26.4191
26.992
29.4168
33.9305
40.8654
50.5966
63.5083
79.9742
100
-300
-300
-300
-300
-300
-300
-300
-300
-300
-300
100
84.0825
69.1591
56.0385
45.2159
36.835
30.7367
26.5632
23.8747
22.2442
21.3171
20.8342
20.6318
20.6318
20.8342
21.3171
22.2442
23.8747
26.5632
30.7367
36.835
45.2159
56.0385
69.1591
84.0825
100
-300
-300
-300
-300
-300
-300
-300
-300
-300
-300
-300
-300
-300
-300
100
100
100
100
100
100
100
100
100
100
100
75.2791
59.0054
47.1452
38.4649
32.4074
28.5996
26.7701
26.7701
28.5996
32.4074
38.4649
47.1452
59.0054
75.2791
100
100
100
100
100
100
100
100
100
100
100
100
84.0825
69.1591
56.0385
45.2159
36.835
30.7367
26.5632
23.8747
22.2442
21.3171
20.8342
20.6318
20.6318
20.8342
21.3171
22.2442
23.8747
26.5632
30.7367
36.835
45.2159
56.0385
69.1591
84.0825
100
-300
-300
-300
-300
-300
-300
-300
-300
-300
-300
-300
-300
-300
-300
-300
-300
-300
-300
-300
-300
-300
-300
-300
-300
100
79.9742
63.5083
50.5966
40.8654
33.9305
29.4168
26.992
26.4191
27.5959
30.5599
35.4552
42.4724
51.7594
63.2063
75.4374
80.3388
82.7467
84.2901
85.6357
87.1196
88.9311
91.1622
93.8164
96.8127
100
100
84.0825
69.1591
56.0385
45.2159
36.835
30.7367
26.5632
23.8747
22.2442
21.3171
20.8342
20.6318
20.6318
20.8342
21.3171
22.2442
23.8747
26.5632
30.7367
36.835
45.2159
56.0385
69.1591
84.0825
100
-300
-300
-300
-300
-300
-300
-300
-300
-300
-300
-300
-300
-300
-300
-300
-300
-300
-300
-300
-300
-300
-300
-300
-300
100
82.0465
66.0742
52.8625
42.5721
35.0548
30.0069
27.0813
25.9786
26.5056
28.588
32.2359
37.4639
44.1607
51.8601
59.3233
64.207
67.4206
69.9026
72.3137
75.1071
78.5812
82.8882
88.0238
93.8261
100
100
84.0825
69.1591
56.0385
45.2159
36.835
30.7367
26.5632
23.8747
22.2442
21.3171
20.8342
20.6318
20.6318
20.8342
21.3171
22.2442
23.8747
26.5632
30.7367
36.835
45.2159
56.0385
69.1591
84.0825
100
-300
-300
-300
-300
-300
-300
-300
-300
-300
-300
-300
-300
-300
-300
-300
-300
-300
-300
-300
-300
-300
-300
-300
-300
100
83.0465
67.5019
54.2549
43.6897
35.8121
30.386
27.0658
25.5086
25.4475
26.7148
29.2159
32.8592
37.4546
42.5919
47.5594
51.5526
54.7473
57.6497
60.7924
64.6364
69.5234
75.6321
82.9386
91.2029
100
100
84.0825
69.1591
56.0385
45.2159
36.835
30.7367
26.5632
23.8747
22.2442
21.3171
20.8342
20.6318
20.6318
20.8342
21.3171
22.2442
23.8747
26.5632
30.7367
36.835
45.2159
56.0385
69.1591
84.0825
100
-300
-300
-300
-300
-300
-300
-300
-300
-300
-300
-300
-300
-300
-300
-300
-300
-300
-300
-300
-300
-300
-300
-300
-300
100
83.5537
68.2864
55.0722
44.376
36.2834
30.6015
26.9874
25.0668
24.5175
25.1031
26.6593
29.0444
32.0738
35.4669
38.8575
41.951
44.8355
47.8549
51.4567
56.085
62.0934
69.6658
78.7518
89.0418
100
100
84.0825
69.1591
56.0385
45.2159
36.835
30.7367
26.5632
23.8747
22.2442
21.3171
20.8342
20.6318
20.6318
20.8342
21.3171
22.2442
23.8747
26.5632
30.7367
36.835
45.2159
56.0385
69.1591
84.0825
100
-300
-300
-300
-300
-300
-300
-300
-300
-300
-300
-300
-300
-300
-300
-300
-300
-300
-300
-300
-300
-300
-300
-300
-300
100
83.8158
68.7109
55.5336
44.7746
36.5562
30.7076
26.8854
24.6928
23.7686
23.8297
24.6696
26.1272
28.0471
30.2558
32.5837
34.9516
37.481
40.4757
44.3474
49.5279
56.3725
65.0609
75.5162
87.3706
100
100
84.0825
69.1591
56.0385
45.2159
36.835
30.7367
26.5632
23.8747
22.2442
21.3171
20.8342
20.6318
20.6318
20.8342
21.3171
22.2442
23.8747
26.5632
30.7367
36.835
45.2159
56.0385
69.1591
84.0825
100
-300
-300
-300
-300
-300
-300
-300
-300
-300
-300
-300
-300
-300
-300
-300
-300
-300
-300
-300
-300
-300
-300
-300
-300
100
83.9509
68.9356
55.7844
44.9946
36.7034
30.7498
26.7874
24.4037
23.2112
22.8969
23.23
24.0441
25.2118
26.6316
28.2448
30.0807
32.3065
35.2284
39.2502
44.7999
52.2324
61.721
73.1664
86.1562
100
100
84.0825
69.1591
56.0385
45.2159
36.835
30.7367
26.5632
23.8747
22.2442
21.3171
20.8342
20.6318
20.6318
20.8342
21.3171
22.2442
23.8747
26.5632
30.7366
36.835
45.2159
56.0385
69.1591
84.0825
100
-300
-300
-300
-300
-300
-300
-300
-300
-300
-300
-300
-300
-300
-300
-300
-300
-300
-300
-300
-300
-300
-300
-300
-300
100
84.0194
69.0513
55.9155
45.1101
36.7775
30.7599
26.7077
24.1975
22.8251
22.259
22.2553
22.6471
23.3271
24.2389
25.386
26.858
28.8575
31.7043
35.8053
41.5899
49.4128
59.4418
71.5611
85.326
100
100
84.0825
69.1591
56.0385
45.2159
36.835
30.7367
26.5632
23.8747
22.2442
21.3171
20.8342
20.6318
20.6318
20.8342
21.3171
22.2442
23.8747
26.5632
30.7366
36.8349
45.2159
56.0385
69.1591
84.0825
100
-300
-300
-300
-300
-300
-300
-300
-300
-300
-300
-300
-300
-300
-300
-300
-300
-300
-300
-300
-300
-300
-300
-300
-300
100
84.0532
69.1089
55.9813
45.1677
36.812
30.757
26.6502
24.0609
22.575
21.8502
21.6353
21.7643
22.1429
22.741
23.5971
24.8348
26.6809
29.4678
33.6085
39.5352
47.6033
57.9767
70.528
84.7915
100
100
84.0825
69.1591
56.0385
45.2159
36.835
30.7367
26.5632
23.8747
22.2442
21.3171
20.8342
20.6318
20.6318
20.8342
21.3171
22.2442
23.8747
26.5632
30.7366
36.8349
45.2159
56.0385
69.1591
84.0824
100
-300
-300
-300
-300
-300
-300
-300
-300
-300
-300
-300
-300
-300
-300
-300
-300
-300
-300
-300
-300
-300
-300
-300
-300
100
84.0693
69.1366
56.013
45.195
36.8268
30.7508
26.6123
23.9764
22.4229
21.6038
21.2637
21.2375
21.4389
21.8522
22.5352
23.6308
25.3804
28.1258
32.2853
38.2939
46.5077
57.0883
69.901
84.4669
100
100
84.0825
69.1591
56.0385
45.2159
36.835
30.7367
26.5632
23.8747
22.2442
21.3171
20.8342
20.6318
20.6318
20.8342
21.3171
22.2442
23.8747
26.5632
30.7366
36.8349
45.2158
56.0384
69.159
84.0824
100
-300
-300
-300
-300
-300
-300
-300
-300
-300
-300
-300
-300
-300
-300
-300
-300
-300
-300
-300
-300
-300
-300
-300
-300
100
84.0768
69.1493
56.0275
45.2072
36.8324
30.7451
26.5892
23.9273
22.3359
21.4637
21.0533
20.9403
21.0425
21.3523
21.9375
22.9516
24.6444
27.3638
31.5317
37.5852
45.881
56.5795
69.5417
84.2808
100
100
84.0825
69.1591
56.0385
45.2159
36.835
30.7367
26.5632
23.8747
22.2442
21.3171
20.8342
20.6318
20.6318
20.8342
21.3171
22.2442
23.8746
26.5631
30.7364
36.8347
45.2156
56.0382
69.1588
84.0823
100
-300
-300
-300
-300
-300
-300
-300
-300
-300
-300
-300
-300
-300
-300
-300
-300
-300
-300
-300
-300
-300
-300
-300
-300
100
84.08
69.1548
56.0337
45.2122
36.8342
30.7411
26.5761
23.9005
22.2889
21.3884
20.9406
20.7815
20.831
21.0856
21.6184
22.5883
24.2497
26.954
31.1254
37.2023
45.542
56.304
69.3469
84.1798
100
100
84.0825
69.1591
56.0385
45.2159
36.835
30.7367
26.5632
23.8747
22.2442
21.3171
20.8342
20.6318
20.6318
20.8342
21.317
22.244
23.8744
26.5628
30.736
36.8342
45.2151
56.0377
69.1584
84.0821
100
-300
-300
-300
-300
-300
-300
-300
-300
-300
-300
-300
-300
-300
-300
-300
-300
-300
-300
-300
-300
-300
-300
-300
-300
100
84.0811
69.1568
56.0359
45.2138
36.8342
30.7384
26.569
23.8865
22.2648
21.3501
20.8834
20.701
20.7239
20.9506
21.4567
22.4038
24.0489
26.7451
30.9178
37.0064
45.3682
56.1626
69.2469
84.128
100
100
84.0825
69.1591
56.0385
45.2159
36.835
30.7367
26.5632
23.8747
22.2442
21.3171
20.8342
20.6318
20.6317
20.8341
21.3169
22.2438
23.8739
26.5621
30.7351
36.833
45.2137
56.0363
69.1573
84.0815
100
-300
-300
-300
-300
-300
-300
-300
-300
-300
-300
-300
-300
-300
-300
-300
-300
-300
-300
-300
-300
-300
-300
-300
-300
100
84.0811
69.1567
56.0357
45.2132
36.8331
30.7362
26.5649
23.8793
22.253
21.3315
20.8558
20.6623
20.6724
20.8856
21.3788
22.3149
23.9519
26.644
30.8172
36.9112
45.2838
56.0938
69.1982
84.1028
100
100
84.0825
69.1591
56.0385
45.2159
36.835
30.7367
26.5632
23.8747
22.2442
21.3171
20.8342
20.6317
20.6316
20.8339
21.3165
22.2431
23.8729
26.5605
30.7328
36.8301
45.2104
56.0331
69.1546
84.08
100
-300
-300
-300
-300
-300
-300
-300
-300
-300
-300
-300
-300
-300
-300
-300
-300
-300
-300
-300
-300
-300
-300
-300
-300
100
84.0798
69.1544
56.0328
45.2103
36.8302
30.7333
26.5617
23.8751
22.247
21.3226
20.8431
20.6445
20.6489
20.8559
21.3432
22.2741
23.9074
26.5975
30.7708
36.8674
45.2448
56.062
69.1757
84.0911
100
100
84.0825
69.1591
56.0385
45.2159
36.835
30.7367
26.5632
23.8747
22.2442
21.3171
20.8342
20.6316
20.6314
20.8335
21.3157
22.2416
23.8704
26.5568
30.7276
36.8235
45.2029
56.0256
69.1485
84.0765
100
-300
-300
-300
-300
-300
-300
-300
-300
-300
-300
-300
-300
-300
-300
-300
-300
-300
-300
-300
-300
-300
-300
-300
-300
100
84.0764
69.1484
56.0255
45.2028
36.8235
30.7278
26.5573
23.8714
22.2432
21.3181
20.8371
20.6366
20.6385
20.8429
21.3276
22.2563
23.8879
26.5771
30.7505
36.8481
45.2276
56.0481
69.1659
84.086
100
100
84.0825
69.1591
56.0385
45.2159
36.835
30.7367
26.5632
23.8747
22.2442
21.3171
20.8341
20.6314
20.6309
20.8325
21.3139
22.2385
23.8653
26.5489
30.7165
36.8092
45.1864
56.0091
69.1349
84.0687
100
-300
-300
-300
-300
-300
-300
-300
-300
-300
-300
-300
-300
-300
-300
-300
-300
-300
-300
-300
-300
-300
-300
-300
-300
100
84.0687
69.1349
56.009
45.1864
36.8092
30.7166
26.5491
23.8657
22.2391
21.3149
20.834
20.6329
20.6341
20.8374
21.3211
22.2489
23.8798
26.5686
30.742
36.8401
45.2205
56.0422
69.1617
84.0838
100
100
84.0825
69.1591
56.0385
45.2159
36.835
30.7366
26.5632
23.8747
22.2442
21.317
20.8339
20.631
20.63
20.8307
21.3104
22.2323
23.8549
26.5329
30.6936
36.7795
45.1518
55.974
69.1057
84.052
100
-300
-300
-300
-300
-300
-300
-300
-300
-300
-300
-300
-300
-300
-300
-300
-300
-300
-300
-300
-300
-300
-300
-300
-300
100
84.052
69.1057
55.974
45.1518
36.7795
30.6937
26.5329
23.8551
22.2325
21.3108
20.8312
20.6308
20.6319
20.8351
21.3185
22.2459
23.8766
26.5652
30.7386
36.8369
45.2176
56.0399
69.1601
84.083
100
100
84.0825
69.1591
56.0385
45.2159
36.835
30.7366
26.5632
23.8747
22.2441
21.3168
20.8335
20.6302
20.6283
20.8273
21.3038
22.2205
23.835
26.5018
30.6488
36.7205
45.0824
55.9027
69.0457
84.0174
100
-300
-300
-300
-300
-300
-300
-300
-300
-300
-300
-300
-300
-300
-300
-300
-300
-300
-300
-300
-300
-300
-300
-300
-300
100
84.0174
69.0457
55.9027
45.0824
36.7205
30.6488
26.5018
23.8351
22.2206
21.304
20.8274
20.6286
20.6305
20.834
21.3174
22.2447
23.8753
26.5639
30.7374
36.8356
45.2165
56.039
69.1594
84.0826
100
100
84.0825
69.1591
56.0385
45.2159
36.835
30.7366
26.5632
23.8746
22.244
21.3166
20.8329
20.6288
20.6254
20.8212
21.2921
22.1992
23.7989
26.4446
30.5653
36.609
44.9487
55.7632
68.9264
83.9475
100
-300
-300
-300
-300
-300
-300
-300
-300
-300
-300
-300
-300
-300
-300
-300
-300
-300
-300
-300
-300
-300
-300
-300
-300
100
83.9475
68.9264
55.7632
44.9487
36.609
30.5653
26.4446
23.7989
22.1992
21.2921
20.8212
20.6255
20.6289
20.8331
21.3168
22.2442
23.8748
26.5635
30.7369
36.8352
45.2161
56.0387
69.1592
84.0825
100
100
84.0825
69.1591
56.0385
45.2159
36.835
30.7366
26.5632
23.8746
22.2438
21.3162
20.8319
20.6265
20.6204
20.811
21.2724
22.163
23.7368
26.345
30.4174
36.4079
44.7026
55.5002
68.6964
83.8105
100
-300
-300
-300
-300
-300
-300
-300
-300
-300
-300
-300
-300
-300
-300
-300
-300
-300
-300
-300
-300
-300
-300
-300
-300
100
83.8105
68.6964
55.5002
44.7026
36.4079
30.4174
26.345
23.7368
22.163
21.2724
20.811
20.6205
20.6266
20.832
21.3162
22.2439
23.8746
26.5633
30.7367
36.835
45.216
56.0386
69.1591
84.0825
100
100
84.0825
69.1591
56.0385
45.2159
36.8349
30.7366
26.5632
23.8745
22.2436
21.3155
20.8304
20.623
20.6128
20.7951
21.2411
22.1052
23.6362
26.1811
30.1695
36.063
44.2688
55.0225
68.2647
83.5456
100
-300
-300
-300
-300
-300
-300
-300
-300
-300
-300
-300
-300
-300
-300
-300
-300
-300
-300
-300
-300
-300
-300
-300
-300
100
83.5456
68.2647
55.0225
44.2688
36.063
30.1695
26.1811
23.6362
22.1052
21.2411
20.7951
20.6128
20.623
20.8304
21.3156
22.2436
23.8745
26.5632
30.7366
36.835
45.216
56.0385
69.1591
84.0825
100
100
84.0825
69.1591
56.0385
45.2159
36.8349
30.7366
26.5631
23.8743
22.2432
21.3146
20.8282
20.618
20.6016
20.7718
21.1949
22.0186
23.4832
25.9275
29.7771
35.5018
43.5387
54.1846
67.4707
83.0346
100
-300
-300
-300
-300
-300
-300
-300
-300
-300
-300
-300
-300
-300
-300
-300
-300
-300
-300
-300
-300
-300
-300
-300
-300
100
83.0346
67.4707
54.1846
43.5387
35.5018
29.7771
25.9275
23.4832
22.0186
21.1949
20.7718
20.6016
20.618
20.8282
21.3146
22.2433
23.8743
26.5631
30.7366
36.835
45.2159
56.0385
69.1591
84.0825
100
100
84.0825
69.1591
56.0385
45.2159
36.8349
30.7366
26.5631
23.8742
22.2428
21.3134
20.8253
20.6111
20.5864
20.7398
21.1309
21.8972
23.2656
25.5598
29.194
34.6405
42.3702
52.7676
66.0308
82.0289
100
-300
-300
-300
-300
-300
-300
-300
-300
-300
-300
-300
-300
-300
-300
-300
-300
-300
-300
-300
-300
-300
-300
-300
-300
100
82.0289
66.0308
52.7676
42.3702
34.6405
29.194
25.5598
23.2656
21.8972
21.1309
20.7398
20.5864
20.6111
20.8253
21.3134
22.2428
23.8742
26.5631
30.7366
36.8349
45.2159
56.0385
69.1591
84.0825
100
100
84.0825
69.1591
56.0385
45.2159
36.8349
30.7366
26.563
23.8739
22.2422
21.3119
20.8216
20.6025
20.5672
20.699
21.0485
21.7391
22.9779
25.064
28.3868
33.405
40.608
50.4733
63.4482
79.9459
100
-300
-300
-300
-300
-300
-300
-300
-300
-300
-300
-300
-300
-300
-300
-300
-300
-300
-300
-300
-300
-300
-300
-300
-300
100
79.9459
63.4482
50.4733
40.608
33.405
28.3868
25.064
22.9779
21.7391
21.0485
20.699
20.5672
20.6025
20.8216
21.3119
22.2422
23.8739
26.563
30.7366
36.8349
45.2159
56.0385
69.1591
84.0825
100
100
84.0825
69.1591
56.0385
45.2159
36.8349
30.7365
26.5629
23.8737
22.2415
21.3102
20.8173
20.5924
20.5446
20.6507
20.9501
21.5485
22.6261
24.4467
27.357
31.772
38.1511
46.9896
58.9195
75.2243
100
100
100
100
100
100
100
100
100
100
100
100
100
100
100
100
100
100
100
100
100
100
100
100
100
100
75.2243
58.9195
46.9896
38.1511
31.772
27.357
24.4467
22.6261
21.5485
20.9501
20.6507
20.5446
20.5924
20.8173
21.3102
22.2415
23.8737
26.5629
30.7365
36.8349
45.2159
56.0385
69.1591
84.0825
100
100
84.0825
69.1591
56.0385
45.2159
36.8349
30.7365
26.5628
23.8734
22.2408
21.3083
20.8127
20.5815
20.52
20.5977
20.8416
21.3364
22.2309
23.7438
26.1618
29.824
35.0878
42.281
51.6313
63.0679
75.2243
79.9459
82.0289
83.0346
83.5456
83.8105
83.9475
84.0174
84.052
84.0687
84.0764
84.0798
84.0811
84.0811
84.0798
84.0764
84.0687
84.052
84.0174
83.9475
83.8105
83.5456
83.0346
82.0289
79.9459
75.2243
63.0679
51.6313
42.281
35.0878
29.824
26.1618
23.7438
22.2309
21.3364
20.8416
20.5977
20.52
20.5815
20.8127
21.3083
22.2408
23.8734
26.5628
30.7365
36.8349
45.2159
56.0385
69.1591
84.0825
100
100
84.0825
69.1591
56.0385
45.2159
36.8349
30.7365
26.5627
23.8731
22.2401
21.3064
20.808
20.5705
20.4951
20.5441
20.7313
21.1196
21.8244
23.0153
24.9125
27.7673
31.8212
37.2374
43.9862
51.6313
58.9195
63.4482
66.0308
67.4707
68.2647
68.6964
68.9264
69.0457
69.1057
69.1349
69.1484
69.1544
69.1566
69.1566
69.1544
69.1484
69.1349
69.1057
69.0457
68.9264
68.6964
68.2647
67.4707
66.0308
63.4482
58.9195
51.6313
43.9862
37.2374
31.8212
27.7673
24.9125
23.0153
21.8244
21.1196
20.7313
20.5441
20.4951
20.5705
20.808
21.3064
22.2401
23.8731
26.5627
30.7365
36.8349
45.2159
56.0385
69.1591
84.0825
100
100
84.0825
69.1591
56.0385
45.2159
36.8349
30.7364
26.5626
23.8729
22.2394
21.3047
20.8037
20.5602
20.4719
20.494
20.6278
20.9158
21.4411
22.3274
23.7321
25.8275
28.7628
32.6021
37.2374
42.281
46.9896
50.4733
52.7676
54.1846
55.0225
55.5002
55.7632
55.9027
55.974
56.009
56.0255
56.0327
56.0355
56.0355
56.0327
56.0255
56.009
55.974
55.9027
55.7632
55.5002
55.0225
54.1846
52.7676
50.4733
46.9896
42.281
37.2374
32.6021
28.7628
25.8275
23.7321
22.3274
21.4411
20.9158
20.6278
20.494
20.4719
20.5602
20.8037
21.3047
22.2394
23.8729
26.5626
30.7364
36.8349
45.2159
56.0385
69.1591
84.0825
100
100
84.0825
69.1591
56.0385
45.2159
36.8349
30.7364
26.5626
23.8727
22.2388
21.3032
20.8
20.5514
20.4518
20.4505
20.538
20.739
21.1091
21.7323
22.7146
24.1674
26.1774
28.7628
31.8212
35.0878
38.1511
40.608
42.3702
43.5387
44.2688
44.7026
44.9487
45.0824
45.1518
45.1864
45.2028
45.2101
45.2128
45.2128
45.2101
45.2028
45.1864
45.1518
45.0824
44.9487
44.7026
44.2688
43.5387
42.3702
40.608
38.1511
35.0878
31.8212
28.7628
26.1774
24.1674
22.7146
21.7323
21.1091
20.739
20.538
20.4505
20.4518
20.5514
20.8
21.3032
22.2388
23.8727
26.5626
30.7364
36.8349
45.2159
56.0385
69.1591
84.0825
100
100
84.0825
69.1591
56.0386
45.216
36.835
30.7365
26.5626
23.8726
22.2384
21.3021
20.797
20.5443
20.4358
20.4157
20.466
20.5972
20.8432
21.2575
21.9074
22.8611
24.1674
25.8275
27.7673
29.824
31.772
33.405
34.6405
35.5018
36.063
36.4079
36.609
36.7205
36.7795
36.8092
36.8234
36.8298
36.8322
36.8322
36.8298
36.8234
36.8092
36.7795
36.7205
36.609
36.4079
36.063
35.5018
34.6405
33.405
31.772
29.824
27.7673
25.8275
24.1674
22.8611
21.9074
21.2575
20.8432
20.5972
20.466
20.4157
20.4358
20.5443
20.797
21.3021
22.2384
23.8726
26.5626
30.7365
36.835
45.216
56.0386
69.1591
84.0825
100
100
84.0825
69.1592
56.0387
45.2161
36.8351
30.7366
26.5627
23.8727
22.2383
21.3014
20.795
20.5392
20.4239
20.3897
20.4124
20.4917
20.6458
20.9063
21.3135
21.9074
22.7146
23.7321
24.9125
26.1618
27.357
28.3868
29.194
29.7771
30.1695
30.4174
30.5653
30.6488
30.6936
30.7165
30.7275
30.7325
30.7344
30.7344
30.7325
30.7275
30.7165
30.6936
30.6488
30.5653
30.4174
30.1695
29.7771
29.194
28.3868
27.357
26.1618
24.9125
23.7321
22.7146
21.9074
21.3135
20.9063
20.6458
20.4917
20.4124
20.3897
20.4239
20.5392
20.795
21.3014
22.2383
23.8727
26.5627
30.7366
36.8351
45.2161
56.0387
69.1592
84.0825
100
100
84.0826
69.1594
56.039
45.2165
36.8356
30.7372
26.5632
23.8732
22.2386
21.3013
20.794
20.5361
20.4161
20.3721
20.3755
20.4189
20.5095
20.6644
20.9063
21.2575
21.7323
22.3274
23.0153
23.7438
24.4467
25.064
25.5598
25.9275
26.1811
26.345
26.4446
26.5018
26.5329
26.5489
26.5567