# vtk DataFile Version 2.0
LBE two cylinders
ASCII
DATASET STRUCTURED_POINTS
DIMENSIONS 76 76 1
ASPECT_RATIO 1 1 1
ORIGIN 0 0 0
POINT_DATA 5776
SCALARS temp double 1
LOOKUP_TABLE default
100
100
100
100
100
100
100
100
100
100
100
100
100
100
100
100
100
100
100
100
100
100
100
100
100
100
-300
-300
-300
-300
-300
-300
-300
-300
-300
-300
-300
-300
-300
-300
100
100
100
100
100
100
100
100
100
100
100
100
100
100
100
100
100
100
100
100
100
100
100
100
100
100
-300
-300
-300
-300
-300
-300
-300
-300
-300
-300
100
98.7318
97.4958
96.3217
95.2352
94.2563
93.3985
92.6695
92.0711
91.6014
91.2559
91.0293
90.9173
90.9173
91.0293
91.2559
91.6014
92.0711
92.6695
93.3985
94.2563
95.2352
96.3217
97.4958
98.7318
100
-300
-300
-300
-300
-300
-300
-300
-300
-300
-300
-300
-300
-300
-300
100
98.7328
97.4977
96.3245
95.2387
94.2604
93.4031
92.6742
92.0759
91.6061
91.2604
91.0335
90.9211
90.9206
91.0322
91.2582
91.6033
92.0726
92.6706
93.3994
94.2569
95.2357
96.322
97.496
98.7319
100
-300
-300
-300
-300
-300
-300
-300
-300
-300
-300
100
97.4954
95.0542
92.7353
90.5895
88.656
86.962
85.5221
84.3403
83.4126
82.7302
82.2828
82.0615
82.0615
82.2828
82.7302
83.4126
84.3403
85.5221
86.962
88.656
90.5895
92.7353
95.0542
97.4954
100
-300
-300
-300
-300
-300
-300
-300
-300
-300
-300
-300
-300
-300
-300
100
97.4977
95.0587
92.7419
90.5978
88.6657
86.9726
85.5333
84.3517
83.4238
82.7409
82.2926
82.0704
82.0693
82.2895
82.7358
83.4172
84.3439
85.5248
86.964
88.6575
90.5905
92.736
95.0546
97.4955
100
-300
-300
-300
-300
-300
-300
-300
-300
-300
-300
100
96.3199
92.7329
89.3258
86.1729
83.332
80.843
78.7273
76.9909
75.6279
74.6252
73.9678
73.6427
73.6427
73.9678
74.6252
75.6279
76.9909
78.7273
80.843
83.332
86.1729
89.3258
92.7329
96.3199
100
-300
-300
-300
-300
-300
-300
-300
-300
-300
-300
-300
-300
-300
-300
100
96.3243
92.7416
89.3383
86.1887
83.3505
80.8633
78.7487
77.0126
75.6492
74.6456
73.9866
73.6597
73.6577
73.9806
74.6359
75.6365
76.9977
78.7325
80.8468
83.3348
86.1748
89.3271
92.7337
96.3202
100
-300
-300
-300
-300
-300
-300
-300
-300
-300
-300
100
95.2302
90.5812
86.1653
82.0789
78.3969
75.1709
72.4288
70.1783
68.4118
67.1123
66.2602
65.8389
65.8389
66.2602
67.1123
68.4118
70.1783
72.4288
75.1709
78.3969
82.0789
86.1653
90.5812
95.2302
100
-300
-300
-300
-300
-300
-300
-300
-300
-300
-300
-300
-300
-300
-300
100
95.2381
90.5967
86.1877
82.1071
78.4299
75.2072
72.4671
70.2173
68.4501
67.1488
66.2941
65.8695
65.8657
66.2832
67.1314
68.4273
70.1905
72.4381
75.1778
78.4018
82.0822
86.1675
90.5825
95.2308
100
-300
-300
-300
-300
-300
-300
-300
-300
-300
-300
100
94.2453
88.6363
83.3086
78.3783
73.9361
70.044
66.7358
64.0207
61.8895
60.3217
59.2937
58.7854
58.7854
59.2937
60.3217
61.8895
64.0207
66.7358
70.044
73.9361
78.3783
83.3086
88.6363
94.2453
100
-300
-300
-300
-300
-300
-300
-300
-300
-300
-300
-300
-300
-300
-300
100
94.259
88.6632
83.3474
78.4273
73.9933
70.1071
66.8023
64.0883
61.9559
60.3851
59.3525
58.8385
58.832
59.3335
60.3548
61.9163
64.0418
66.7519
70.0559
73.9446
78.3841
83.3124
88.6386
94.2463
100
-300
-300
-300
-300
-300
-300
-300
-300
-300
-300
100
93.3771
86.9221
80.7906
75.1166
70.0043
65.5251
61.718
58.5934
56.1407
54.3365
53.1535
52.5686
52.5686
53.1535
54.3365
56.1407
58.5934
61.718
65.5251
70.0043
75.1166
80.7906
86.9221
93.3771
100
-300
-300
-300
-300
-300
-300
-300
-300
-300
-300
-300
-300
-300
-300
100
93.4004
86.9675
80.8562
75.1995
70.1012
65.632
61.8307
58.7079
56.2533
54.444
53.2532
52.6585
52.6475
53.221
54.3926
56.1861
58.629
61.7451
65.5451
70.0185
75.1262
80.7968
86.9257
93.3788
100
-300
-300
-300
-300
-300
-300
-300
-300
-300
-300
100
92.6309
85.4485
78.6262
72.3129
66.6247
61.6409
57.4048
53.9283
51.1993
49.1919
47.8757
47.2249
47.2249
47.8757
49.1919
51.1993
53.9283
57.4048
61.6409
66.6247
72.3129
78.6262
85.4485
92.6309
100
-300
-300
-300
-300
-300
-300
-300
-300
-300
-300
-300
-300
-300
-300
100
92.6693
85.5236
78.7348
72.4503
66.7851
61.8179
57.5917
54.1183
51.3862
49.3703
48.0411
47.3742
47.3559
47.9876
49.2849
51.2744
53.9871
57.4495
61.6736
66.6478
72.3285
78.6362
85.4543
92.6336
100
-300
-300
-300
-300
-300
-300
-300
-300
-300
-300
100
92.0053
84.2131
76.8116
69.9624
63.7914
58.3846
53.789
50.0175
47.057
44.8793
43.4514
42.7454
42.7454
43.4514
44.8793
47.057
50.0175
53.789
58.3846
63.7914
69.9624
76.8116
84.2131
92.0053
100
-300
-300
-300
-300
-300
-300
-300
-300
-300
-300
-300
-300
-300
-300
100
92.0676
84.3349
76.9877
70.1852
64.0516
58.6719
54.0924
50.326
47.3606
45.1691
43.7202
42.9879
42.9581
43.633
45.03
47.1785
50.1125
53.861
58.4371
63.8283
69.9872
76.8274
84.2222
92.0094
100
-300
-300
-300
-300
-300
-300
-300
-300
-300
-300
100
91.4937
83.2029
75.3279
68.0404
61.4746
55.7219
50.8325
46.8197
43.6699
41.353
39.8338
39.0827
39.0827
39.8338
41.353
43.6699
46.8197
50.8325
55.7219
61.4746
68.0404
75.3279
83.2029
91.4937
100
-300
-300
-300
-300
-300
-300
-300
-300
-300
-300
-300
-300
-300
-300
100
91.5925
83.3963
75.6074
68.3943
61.8881
56.1786
51.3148
47.3105
44.1531
41.8142
40.2616
39.4685
39.4211
40.1224
41.5922
43.8625
46.9699
50.9457
55.8043
61.5321
68.0788
75.3519
83.2167
91.4999
100
-300
-300
-300
-300
-300
-300
-300
-300
-300
-300
100
91.0856
82.3971
74.1443
66.5073
59.6266
53.5981
48.4742
44.2691
40.9683
38.5404
36.9484
36.1613
36.1613
36.9484
38.5404
40.9683
44.2691
48.4742
53.5981
59.6266
66.5073
74.1443
82.3971
91.0856
100
-300
-300
-300
-300
-300
-300
-300
-300
-300
-300
-300
-300
-300
-300
100
91.2392
82.6977
74.579
67.0577
60.2701
54.309
49.2255
45.0339
41.7215
39.2595
37.6154
36.7626
36.6884
37.3975
38.9121
41.2669
44.5013
48.6486
53.7242
59.714
66.565
74.1801
82.4173
91.0946
100
-300
-300
-300
-300
-300
-300
-300
-300
-300
-300
100
90.7681
81.77
73.2233
65.3143
58.1885
51.9454
46.6391
42.2843
38.8661
36.3518
34.7032
33.8881
33.8881
34.7032
36.3518
38.8661
42.2843
46.6391
51.9454
58.1885
65.3143
73.2233
81.77
90.7681
100
-300
-300
-300
-300
-300
-300
-300
-300
-300
-300
-300
-300
-300
-300
100
91.0019
82.2276
73.8852
66.1528
59.1693
53.0296
47.7855
43.4519
40.0162
37.4502
35.7218
34.8061
34.6922
35.3875
36.9173
39.3192
42.6355
46.9016
52.134
58.318
65.3986
73.2748
81.7986
90.7806
100
-300
-300
-300
-300
-300
-300
-300
-300
-300
-300
100
90.5269
81.2939
72.5239
64.4084
57.0966
50.6905
45.2458
40.7774
37.27
34.6901
32.9985
32.1622
32.1622
32.9985
34.6901
37.27
40.7774
45.2458
50.6905
57.0966
64.4084
72.5239
81.2939
90.5269
100
-300
-300
-300
-300
-300
-300
-300
-300
-300
-300
-300
-300
-300
-300
100
90.8754
81.9761
73.5112
65.6597
58.5611
52.3105
46.9597
42.5239
38.991
36.334
34.5229
33.5352
33.3638
34.0198
35.5322
37.9428
41.2967
45.6318
50.9656
57.2833
64.5282
72.5956
81.3327
90.5436
100
-300
-300
-300
-300
-300
-300
-300
-300
-300
-300
100
90.3483
80.9411
72.0057
63.7372
56.2876
49.7608
44.2134
39.6609
36.0874
33.4589
31.7355
30.8834
30.8834
31.7355
33.4589
36.0874
39.6609
44.2134
49.7608
56.2876
63.7372
72.0057
80.9411
90.3483
100
-300
-300
-300
-300
-300
-300
-300
-300
-300
-300
-300
-300
-300
-300
100
90.8571
81.9374
73.4482
65.5665
58.4301
52.1324
46.7245
42.2213
38.6115
35.8703
33.971
32.8958
32.6425
33.2281
34.6868
37.0649
40.4118
44.7678
50.152
56.5494
63.9018
72.1016
80.9913
90.3692
100
-300
-300
-300
-300
-300
-300
-300
-300
-300
-300
100
90.219
80.6859
71.631
63.2518
55.7025
49.0884
43.4669
38.8535
35.2323
32.5687
30.8223
29.9588
29.9588
30.8223
32.5687
35.2323
38.8535
43.4669
49.0884
55.7025
63.2518
71.631
80.6859
90.219
100
-300
-300
-300
-300
-300
-300
-300
-300
-300
-300
-300
-300
-300
-300
100
90.9468
82.1115
73.6958
65.8723
58.774
52.4914
47.073
42.5331
38.8614
36.0362
34.0359
32.8492
32.482
32.9587
34.3212
36.6219
39.915
44.2443
49.6304
56.0589
63.47
71.7533
80.7469
90.2431
100
-300
-300
-300
-300
-300
-300
-300
-300
-300
-300
100
90.1278
80.5058
71.3664
62.9092
55.2895
48.6138
42.9399
38.2836
34.6287
31.9403
30.1777
29.3062
29.3062
30.1777
31.9403
34.6287
38.2836
42.9399
48.6138
55.2895
62.9092
71.3664
80.5058
90.1278
100
-300
-300
-300
-300
-300
-300
-300
-300
-300
-300
-300
-300
-300
-300
100
91.1477
82.5042
74.2629
66.5879
59.6057
53.4007
48.0177
43.4692
39.746
36.8302
34.7075
33.3762
32.8529
33.1733
34.3892
36.5614
39.7502
44.0036
49.3445
55.759
63.1863
71.5131
80.573
90.1519
100
-300
-300
-300
-300
-300
-300
-300
-300
-300
-300
100
90.065
80.3817
71.1841
62.673
55.0049
48.2867
42.5767
37.8908
34.2127
31.5073
29.7335
28.8564
28.8564
29.7335
31.5073
34.2127
37.8908
42.5767
48.2867
55.0049
62.673
71.1841
80.3817
90.065
100
-300
-300
-300
-300
-300
-300
-300
-300
-300
-300
-300
-300
-300
-300
100
91.4654
83.1271
75.1661
67.7354
60.9513
54.89
49.59
45.0605
41.2925
38.273
35.9971
34.4765
33.7433
33.8485
34.8575
36.8421
39.8704
43.9955
49.2435
55.6012
63.0071
71.3451
80.4438
90.0819
100
-300
-300
-300
-300
-300
-300
-300
-300
-300
-300
100
90.0226
80.2981
71.0614
62.5141
54.8133
48.0666
42.3323
37.6265
33.9328
31.2159
29.4345
28.5538
28.5538
29.4345
31.2159
33.9328
37.6265
42.3323
48.0666
54.8133
62.5141
71.0614
80.2981
90.0226
100
-300
-300
-300
-300
-300
-300
-300
-300
-300
-300
-300
-300
-300
-300
100
91.9075
83.995
76.4279
69.3446
62.848
57.0026
51.8378
47.3565
43.5486
40.4057
37.9351
36.167
35.1555
34.973
35.7031
37.4313
40.2357
44.1757
49.2806
55.5391
62.8892
71.2127
80.3326
90.0189
100
-300
-300
-300
-300
-300
-300
-300
-300
-300
-300
100
89.9948
80.2432
70.9808
62.4097
54.6874
47.9219
42.1717
37.4528
33.7489
31.0244
29.2381
28.3549
28.3549
29.2381
31.0244
33.7489
37.4528
42.1717
47.9219
54.6874
62.4097
70.9808
80.2432
89.9948
100
-300
-300
-300
-300
-300
-300
-300
-300
-300
-300
-300
-300
-300
-300
100
92.4815
85.1234
78.0722
71.4482
65.3376
59.7898
54.8205
50.4222
46.5794
43.287
40.5673
38.4768
37.101
36.542
36.9075
38.3002
40.8094
44.5013
49.4095
55.5251
62.7871
71.0756
80.209
89.9466
100
-300
-300
-300
-300
-300
-300
-300
-300
-300
-300
100
89.977
80.208
70.929
62.3426
54.6066
47.829
42.0686
37.3413
33.6308
30.9015
29.112
28.2273
28.2273
29.112
30.9015
33.6308
37.3413
42.0686
47.829
54.6066
62.3426
70.929
80.208
89.977
100
-300
-300
-300
-300
-300
-300
-300
-300
-300
-300
-300
-300
-300
-300
100
93.1934
86.5249
80.1191
74.0756
68.4606
63.3043
58.6037
54.3338
50.4654
46.9915
43.9514
41.4409
39.5925
38.5496
38.4505
39.4178
41.5525
44.9275
49.5809
55.5071
62.6482
70.8858
80.0349
89.8435
100
-300
-300
-300
-300
-300
-300
-300
-300
-300
-300
100
89.9658
80.1859
70.8965
62.3005
54.5559
47.7708
42.004
37.2714
33.5568
30.8244
29.0329
28.1472
28.1472
29.0329
30.8244
33.5568
37.2714
42.004
47.7708
54.5559
62.3005
70.8965
80.1859
89.9658
100
-300
-300
-300
-300
-300
-300
-300
-300
-300
-300
-300
-300
-300
-300
100
94.0455
88.2049
82.579
77.2447
72.2464
67.5916
63.2524
59.1753
55.3029
51.6105
48.1538
45.0929
42.634
40.9786
40.3012
40.7446
42.4194
45.4035
49.7386
55.4239
62.4084
70.5806
79.7582
89.679
100
-300
-300
-300
-300
-300
-300
-300
-300
-300
-300
100
89.9589
80.1723
70.8766
62.2748
54.5249
47.7351
41.9643
37.2285
33.5114
30.7772
28.9845
28.0981
28.0981
28.9845
30.7772
33.5114
37.2285
41.9643
47.7351
54.5249
62.2748
70.8766
80.1723
89.9589
100
-300
-300
-300
-300
-300
-300
-300
-300
-300
-300
-300
-300
-300
-300
100
95.0343
90.1573
85.4459
80.954
76.7041
72.6795
68.8225
65.0376
61.2114
57.2639
53.2491
49.4533
46.2067
43.7878
42.4087
42.226
43.3537
45.8699
49.8177
55.2029
61.9865
70.0747
79.3015
89.4044
100
-300
-300
-300
-300
-300
-300
-300
-300
-300
-300
100
89.9548
80.1642
70.8647
62.2593
54.5062
47.7137
41.9406
37.2029
33.4842
30.7489
28.9554
28.0687
28.0687
28.9554
30.7489
33.4842
37.2029
41.9406
47.7137
54.5062
62.2593
70.8647
80.1642
89.9548
100
-300
-300
-300
-300
-300
-300
-300
-300
-300
-300
-300
-300
-300
-300
100
96.1484
92.361
88.6914
85.1732
81.8096
78.5641
75.3493
72.0163
68.354
64.1361
59.3218
54.5101
50.2463
46.896
44.6923
43.788
44.287
46.2592
49.7459
54.7594
61.2802
69.2484
78.5425
88.9335
100
-300
-300
-300
-300
-300
-300
-300
-300
-300
-300
100
89.9524
80.1594
70.8577
62.2503
54.4953
47.7012
41.9267
37.1878
33.4683
30.7323
28.9384
28.0515
28.0515
28.9384
30.7323
33.4683
37.1878
41.9267
47.7012
54.4953
62.2503
70.8577
80.1594
89.9524
100
-300
-300
-300
-300
-300
-300
-300
-300
-300
-300
-300
-300
-300
-300
100
97.3679
94.7768
92.2599
89.8345
87.4926
85.1893
82.8229
80.2004
76.9769
72.5903
66.4571
60.1711
54.6065
50.1624
47.0346
45.3361
45.1412
46.5011
49.449
54.0026
60.1667
67.9345
77.2785
88.0942
100
-300
-300
-300
-300
-300
-300
-300
-300
-300
-300
100
89.951
80.1567
70.8537
62.2451
54.4891
47.694
41.9187
37.1792
33.4591
30.7228
28.9287
28.0417
28.0417
28.9287
30.7228
33.4591
37.1792
41.9187
47.694
54.4891
62.2451
70.8537
80.1567
89.951
100
-300
-300
-300
-300
-300
-300
-300
-300
-300
-300
-300
-300
-300
-300
100
98.6638
97.3474
96.0665
94.8275
93.6221
92.4175
91.1373
89.6125
87.4427
83.5531
74.6379
66.1415
59.0018
53.3703
49.2819
46.7622
45.8378
46.5322
48.8644
52.851
58.5161
65.913
75.1639
86.4921
100
-300
-300
-300
-300
-300
-300
-300
-300
-300
-300
100
89.9502
80.1552
70.8515
62.2422
54.4856
47.69
41.9143
37.1744
33.454
30.7175
28.9233
28.0361
28.0361
28.9232
30.7175
33.454
37.1744
41.9142
47.6899
54.4856
62.2421
70.8514
80.1552
89.9502
100
-300
-300
-300
-300
-300
-300
-300
-300
-300
-300
-300
-300
-300
-300
100
100
100
100
100
100
100
100
100
100
100
83.0802
71.6459
62.9545
56.2384
51.2643
47.9613
46.3111
46.3107
47.9601
51.2623
56.2357
62.9511
71.6422
83.0771
100
100
100
100
100
100
100
100
100
100
100
100
89.9498
80.1543
70.8503
62.2406
54.4837
47.6878
41.9118
37.1718
33.4512
30.7146
28.9203
28.0331
28.0331
28.9202
30.7145
33.4512
37.1717
41.9117
47.6877
54.4836
62.2405
70.8502
80.1543
89.9498
100
-300
-300
-300
-300
-300
-300
-300
-300
-300
-300
-300
-300
-300
-300
-300
-300
-300
-300
-300
-300
-300
-300
-300
-300
100
86.4921
75.1631
65.9111
58.5129
52.8466
48.8588
46.5255
45.83
46.7537
49.2726
53.3605
58.9916
66.1312
74.6281
83.5445
87.4346
89.605
91.1304
92.4113
93.6167
94.823
96.063
97.345
98.6626
100
100
89.9496
80.1539
70.8496
62.2397
54.4827
47.6866
41.9105
37.1703
33.4497
30.713
28.9186
28.0315
28.0314
28.9186
30.7129
33.4496
37.1702
41.9103
47.6864
54.4825
62.2396
70.8495
80.1538
89.9495
100
-300
-300
-300
-300
-300
-300
-300
-300
-300
-300
-300
-300
-300
-300
-300
-300
-300
-300
-300
-300
-300
-300
-300
-300
100
88.0918
77.2736
67.927
60.1567
53.9902
49.4346
46.4849
45.1235
45.3172
47.0147
50.1419
54.5857
60.1503
66.4367
72.5707
76.9582
80.1829
82.8067
85.1747
87.48
89.824
92.2518
94.7712
97.3651
100
100
89.9495
80.1537
70.8492
62.2393
54.4821
47.686
41.9098
37.1696
33.4489
30.7121
28.9178
28.0305
28.0305
28.9176
30.712
33.4487
37.1693
41.9095
47.6856
54.4818
62.239
70.849
80.1535
89.9494
100
-300
-300
-300
-300
-300
-300
-300
-300
-300
-300
-300
-300
-300
-300
-300
-300
-300
-300
-300
-300
-300
-300
-300
-300
100
88.9282
78.5321
69.233
61.2602
54.7351
49.7179
46.2282
44.2533
43.7523
44.6552
46.8579
50.2077
54.4716
59.2838
64.0992
68.3187
71.9829
75.3185
78.5364
81.7855
85.1531
88.6759
92.3504
96.1431
100
100
89.9494
80.1535
70.8491
62.2391
54.4818
47.6857
41.9094
37.1692
33.4485
30.7117
28.9172
28.03
28.0299
28.917
30.7113
33.448
37.1686
41.9088
47.685
54.4812
62.2385
70.8486
80.1532
89.9492
100
-300
-300
-300
-300
-300
-300
-300
-300
-300
-300
-300
-300
-300
-300
-300
-300
-300
-300
-300
-300
-300
-300
-300
-300
100
89.3948
79.2825
70.0468
61.9503
55.1593
49.7677
45.8144
43.2938
42.1626
42.3427
43.7202
46.1383
49.385
53.1817
57.1983
61.1484
64.9782
68.7676
72.6301
76.661
80.9183
85.4183
90.1385
95.0248
100
100
89.9494
80.1535
70.849
62.2389
54.4817
47.6855
41.9092
37.1689
33.4482
30.7113
28.9169
28.0296
28.0295
28.9165
30.7107
33.4473
37.1679
41.9081
47.6842
54.4805
62.2378
70.848
80.1528
89.949
100
-300
-300
-300
-300
-300
-300
-300
-300
-300
-300
-300
-300
-300
-300
-300
-300
-300
-300
-300
-300
-300
-300
-300
-300
100
89.6623
79.7252
70.5321
62.3457
55.3485
49.6521
45.3076
42.3159
40.6352
40.1875
40.8621
42.5162
44.9752
48.0376
51.4974
55.1943
59.0728
63.1576
67.5063
72.1722
77.1831
82.5314
88.1725
94.0291
100
100
89.9494
80.1534
70.8489
62.2389
54.4816
47.6854
41.9091
37.1688
33.448
30.7111
28.9165
28.0291
28.0289
28.9158
30.7099
33.4464
37.1669
41.9069
47.6831
54.4793
62.2368
70.8472
80.1522
89.9487
100
-300
-300
-300
-300
-300
-300
-300
-300
-300
-300
-300
-300
-300
-300
-300
-300
-300
-300
-300
-300
-300
-300
-300
-300
100
89.8152
79.9792
70.804
62.5424
55.3799
49.435
44.7658
41.378
39.2334
38.2589
38.3534
39.3941
41.2428
43.7558
46.801
50.2826
54.1612
58.4442
63.1606
68.3356
73.9718
80.039
86.4704
93.1658
100
100
89.9494
80.1534
70.8489
62.2388
54.4815
47.6853
41.909
37.1686
33.4477
30.7107
28.916
28.0285
28.0281
28.9148
30.7087
33.4449
37.1652
41.9051
47.6812
54.4775
62.2351
70.8458
80.1512
89.9482
100
-300
-300
-300
-300
-300
-300
-300
-300
-300
-300
-300
-300
-300
-300
-300
-300
-300
-300
-300
-300
-300
-300
-300
-300
100
89.8999
80.1169
70.9406
62.6125
55.3152
49.1688
44.2346
40.5217
37.9962
36.5917
36.2187
36.7741
38.1504
40.2452
42.9733
46.2782
50.1379
54.5577
59.5531
65.1317
71.2774
77.9403
85.0336
92.436
100
100
89.9493
80.1534
70.8489
62.2388
54.4814
47.6851
41.9088
37.1683
33.4473
30.7102
28.9153
28.0275
28.0268
28.9131
30.7066
33.4425
37.1623
41.902
47.6779
54.4743
62.2322
70.8433
80.1494
89.9473
100
-300
-300
-300
-300
-300
-300
-300
-300
-300
-300
-300
-300
-300
-300
-300
-300
-300
-300
-300
-300
-300
-300
-300
-300
100
89.9436
80.1839
70.9945
62.6073
55.2
48.892
43.7453
39.7716
36.9409
35.1937
34.4515
34.6285
35.6407
37.4158
39.8999
43.063
46.8983
51.4142
56.6211
62.5161
69.0693
76.2153
83.8502
91.8342
100
100
89.9493
80.1534
70.8488
62.2387
54.4813
47.685
41.9085
37.1679
33.4467
30.7093
28.9141
28.0259
28.0246
28.9103
30.7031
33.4383
37.1576
41.8968
47.6725
54.4689
62.2272
70.8392
80.1464
89.9457
100
-300
-300
-300
-300
-300
-300
-300
-300
-300
-300
-300
-300
-300
-300
-300
-300
-300
-300
-300
-300
-300
-300
-300
-300
100
89.9626
80.2085
71.0002
62.5613
55.0652
48.6293
43.3156
39.1372
36.0677
34.0534
33.0254
32.9114
33.646
35.1778
37.4751
40.5265
44.3376
48.9218
54.2883
60.4278
67.3011
74.8308
82.8988
91.3498
100
100
89.9493
80.1534
70.8488
62.2386
54.4812
47.6847
41.9081
37.1673
33.4458
30.7079
28.9122
28.0232
28.0211
28.9058
30.6975
33.4316
37.1498
41.8882
47.6635
54.46
62.2189
70.8322
80.1414
89.9431
100
-300
-300
-300
-300
-300
-300
-300
-300
-300
-300
-300
-300
-300
-300
-300
-300
-300
-300
-300
-300
-300
-300
-300
-300
100
89.9671
80.2086
70.9789
62.4961
54.9295
48.3942
42.9519
38.6164
35.3643
33.1464
31.9014
31.5678
32.0933
33.442
35.5979
38.5631
42.3529
46.9859
52.4716
58.7973
65.9173
73.7452
82.1518
90.9692
100
100
89.9493
80.1533
70.8487
62.2385
54.4809
47.6843
41.9075
37.1663
33.4443
30.7058
28.9091
28.019
28.0155
28.8986
30.6885
33.4207
37.1372
41.8743
47.6488
54.4453
62.2054
70.8209
80.1332
89.9387
100
-300
-300
-300
-300
-300
-300
-300
-300
-300
-300
-300
-300
-300
-300
-300
-300
-300
-300
-300
-300
-300
-300
-300
-300
100
89.9628
80.1941
70.9431
62.4236
54.8017
48.1908
42.6517
38.1988
34.8103
32.4409
31.035
30.5386
30.9095
32.1227
34.1733
37.0734
40.8459
45.5136
51.0873
57.5525
64.8589
72.9135
81.5788
90.6771
100
100
89.9493
80.1532
70.8485
62.2382
54.4806
47.6837
41.9065
37.1648
33.4421
30.7025
28.9044
28.0125
28.0068
28.8873
30.6743
33.4036
37.1173
41.8521
47.6253
54.4219
62.1836
70.8025
80.1198
89.9317
100
-300
-300
-300
-300
-300
-300
-300
-300
-300
-300
-300
-300
-300
-300
-300
-300
-300
-300
-300
-300
-300
-300
-300
-300
100
89.9526
80.1701
70.8983
62.3482
54.6837
48.0165
42.4066
37.8683
34.3811
31.9021
30.3798
29.7659
30.0249
31.1399
33.1139
35.9661
39.7252
44.4176
50.0553
56.623
64.0675
72.291
81.1496
90.4581
100
100
89.9492
80.1531
70.8484
62.2379
54.48
47.6828
41.9051
37.1626
33.4387
30.6976
28.8974
28.0027
27.9936
28.8701
30.6526
33.3772
37.0865
41.8176
47.5886
54.385
62.1491
70.7732
80.0985
89.9205
100
-300
-300
-300
-300
-300
-300
-300
-300
-300
-300
-300
-300
-300
-300
-300
-300
-300
-300
-300
-300
-300
-300
-300
-300
100
89.9371
80.1373
70.8449
62.2689
54.5717
47.8636
42.2036
37.6058
34.0499
31.4948
29.8913
29.1952
29.3758
30.4217
32.3415
35.1597
38.9091
43.619
49.3027
55.9445
63.4892
71.8356
80.8354
90.2977
100
100
89.9492
80.153
70.8481
62.2374
54.4792
47.6815
41.903
37.1593
33.4338
30.6903
28.887
27.9882
27.9739
28.8443
30.6199
33.3373
37.0395
41.7648
47.532
54.3278
62.0954
70.7275
80.0651
89.9028
100
-300
-300
-300
-300
-300
-300
-300
-300
-300
-300
-300
-300
-300
-300
-300
-300
-300
-300
-300
-300
-300
-300
-300
-300
100
89.9153
80.0936
70.779
62.1797
54.4572
47.7205
42.0273
37.3907
33.7903
31.1855
29.5287
28.778
28.9062
29.9056
31.7887
34.5839
38.3269
43.0494
48.7657
55.46
63.0759
71.51
80.6106
90.183
100
100
89.9491
80.1528
70.8477
62.2367
54.4781
47.6796
41.9
37.1547
33.4268
30.6799
28.872
27.9672
27.9454
28.8067
30.5719
33.2782
36.9695
41.6854
47.4463
54.2406
62.013
70.6568
80.0132
89.8752
100
-300
-300
-300
-300
-300
-300
-300
-300
-300
-300
-300
-300
-300
-300
-300
-300
-300
-300
-300
-300
-300
-300
-300
-300
100
89.8842
80.0333
70.6926
62.0706
54.328
47.5724
41.8598
37.2017
33.5767
30.9437
29.2558
28.4725
28.5685
29.5389
31.399
34.1799
37.9195
42.6513
48.3906
55.1215
62.7872
71.2824
80.4534
90.1027
100
100
89.949
80.1525
70.8472
62.2358
54.4765
47.6771
41.8959
37.1483
33.417
30.6653
28.8509
27.9376
27.9048
28.7529
30.5028
33.1925
36.8673
41.5684
47.319
54.1099
61.8883
70.5492
79.9336
89.8329
100
-300
-300
-300
-300
-300
-300
-300
-300
-300
-300
-300
-300
-300
-300
-300
-300
-300
-300
-300
-300
-300
-300
-300
-300
100
89.839
79.9473
70.5732
61.9266
54.1675
47.4014
41.6817
37.0175
33.385
30.7421
29.0415
28.2432
28.3234
29.2787
31.1266
33.9001
37.6391
42.3783
48.1337
54.89
62.5897
71.1267
80.3459
90.0478
100
100
89.9488
80.1521
70.8465
62.2346
54.4744
47.6736
41.8904
37.1396
33.4037
30.6455
28.822
27.8967
27.8486
28.6777
30.4056
33.0709
36.7209
41.3994
47.1331
53.917
61.7023
70.387
79.8127
89.7681
100
-300
-300
-300
-300
-300
-300
-300
-300
-300
-300
-300
-300
-300
-300
-300
-300
-300
-300
-300
-300
-300
-300
-300
-300
100
89.7722
79.8218
70.4027
61.7271
53.9539
47.1856
41.4713
36.8159
33.1925
30.5564
28.8594
28.0613
28.1391
29.0908
30.9353
33.7073
37.4482
42.1937
47.961
54.7347
62.4574
71.0226
80.274
90.0111
100
100
89.9486
80.1517
70.8456
62.233
54.4717
47.6692
41.8831
37.1282
33.3861
30.6191
28.7834
27.8417
27.7725
28.5753
30.272
32.9023
36.5157
41.1597
46.8662
53.6364
61.4282
70.1449
79.6303
89.6697
100
-300
-300
-300
-300
-300
-300
-300
-300
-300
-300
-300
-300
-300
-300
-300
-300
-300
-300
-300
-300
-300
-300
-300
-300
100
89.6723
79.6361
70.1549
61.4438
53.6596
46.899
41.2044
36.5745
32.9774
30.365
28.6872
27.9035
27.991
28.9489
30.7975
33.573
37.3182
42.07
47.8462
54.6322
62.3704
70.9542
80.2268
89.987
100
100
89.9483
80.1511
70.8445
62.231
54.4683
47.6635
41.8739
37.1135
33.3634
30.5849
28.7332
27.7698
27.6721
28.4392
30.0927
32.6737
36.2342
40.8267
46.4899
53.2345
61.0288
69.7863
79.356
89.52
100
-300
-300
-300
-300
-300
-300
-300
-300
-300
-300
-300
-300
-300
-300
-300
-300
-300
-300
-300
-300
-300
-300
-300
-300
100
89.5217
79.3596
69.7925
61.0385
53.2487
46.5099
40.8538
36.2699
32.7191
30.1489
28.5067
27.7511
27.8597
28.8329
30.6925
33.4761
37.2281
41.9866
47.7703
54.5652
62.314
70.9101
80.1965
89.9716
100
100
89.948
80.1503
70.8431
62.2286
54.4641
47.6564
41.8624
37.0952
33.335
30.5419
28.6695
27.6779
27.543
28.2627
29.8582
32.3713
35.8571
40.3736
45.9691
52.6673
60.4532
69.2575
78.9429
89.2908
100
-300
-300
-300
-300
-300
-300
-300
-300
-300
-300
-300
-300
-300
-300
-300
-300
-300
-300
-300
-300
-300
-300
-300
-300
100
89.2918
78.9451
69.2613
60.459
52.6758
45.981
40.3898
35.8782
32.3981
29.8914
28.3026
27.5897
27.731
28.7284
30.6054
33.4016
37.1629
41.929
47.7196
54.5214
62.2777
70.8819
80.1772
89.9618
100
100
89.9477
80.1495
70.8415
62.2257
54.4591
47.648
41.8485
37.0731
33.3004
30.4891
28.591
27.564
27.3818
28.0402
29.5594
31.9814
35.3639
39.7713
45.2627
51.8798
59.6318
68.4801
78.3162
88.9338
100
-300
-300
-300
-300
-300
-300
-300
-300
-300
-300
-300
-300
-300
-300
-300
-300
-300
-300
-300
-300
-300
-300
-300
-300
100
88.9344
78.3175
68.4823
59.6352
51.8847
45.2697
39.7806
35.3762
31.997
29.5786
28.0633
27.4088
27.5947
28.6251
30.5258
33.3389
37.1122
41.8871
47.6845
54.4923
62.2541
70.864
80.1651
89.9556
100
100
89.9473
80.1486
70.8397
62.2224
54.4533
47.6382
41.8324
37.047
33.2595
30.4264
28.4971
27.4267
27.1859
27.7676
29.1895
31.4927
34.7364
38.9905
44.3263
50.8061
58.4733
67.3379
77.3524
88.3596
100
-300
-300
-300
-300
-300
-300
-300
-300
-300
-300
-300
-300
-300
-300
-300
-300
-300
-300
-300
-300
-300
-300
-300
-300
100
88.36
77.3532
67.3392
58.4752
50.8089
44.3302
38.9958
34.7433
31.5015
29.2004
27.7807
27.2012
27.4441
28.5164
30.4472
33.2813
37.0692
41.8542
47.6589
54.4721
62.2385
70.8524
80.1574
89.9518
100
100
89.9469
80.1476
70.8378
62.2188
54.447
47.6273
41.8141
37.0174
33.2126
30.354
28.388
27.2662
26.9552
27.4437
28.7455
30.8986
33.9617
38.0078
43.118
49.3758
56.8639
65.6627
75.8388
87.3846
100
-300
-300
-300
-300
-300
-300
-300
-300
-300
-300
-300
-300
-300
-300
-300
-300
-300
-300
-300
-300
-300
-300
-300
-300
100
87.3848
75.8392
65.6634
56.865
49.3774
43.1202
38.0108
33.9655
30.9035
28.7515
27.451
26.9637
27.2759
28.3987
30.3655
33.2247
37.0297
41.8263
47.6388
54.4574
62.2278
70.8449
80.1525
89.9494
100
100
89.9466
80.1468
70.8359
62.2153
54.4404
47.6156
41.7944
36.9849
33.1607
30.2732
28.2655
27.0846
26.6921
27.0712
28.2297
30.2002
33.0373
36.8126
41.6106
47.5283
54.6814
63.2265
73.404
85.5786
100
-300
-300
-300
-300
-300
-300
-300
-300
-300
-300
-300
-300
-300
-300
-300
-300
-300
-300
-300
-300
-300
-300
-300
-300
100
85.5787
73.4042
63.2269
54.682
47.5292
41.6118
36.8142
33.0394
30.2029
28.233
27.0751
26.6967
27.0898
28.2713
30.2795
33.1673
36.9916
41.801
47.6219
54.4461
62.2202
70.8398
80.1495
89.9479
100
100
89.9464
80.1462
70.8345
62.2121
54.4341
47.604
41.7741
36.9508
33.1055
30.1864
28.1325
26.8859
26.4022
26.6573
27.6515
29.4089
31.9759
35.4161
39.8076
45.243
51.8404
59.7825
69.4393
81.7837
100
100
100
100
100
100
100
100
100
100
100
100
100
100
100
100
100
100
100
100
100
100
100
100
100
100
81.7838
69.4394
59.7827
51.8407
45.2434
39.8083
35.417
31.977
29.4104
27.6532
26.6594
26.4046
26.8887
28.1356
30.1897
33.109
36.9544
41.7776
47.6074
54.4372
62.2147
70.8366
80.1476
89.9471
100
100
89.9466
80.1463
70.834
62.2101
54.4291
47.5936
41.7546
36.917
33.0493
30.0967
27.9936
26.6766
26.0942
26.2143
27.0275
28.5473
30.8076
33.8583
37.7597
42.5792
48.3895
55.2697
63.2956
72.4265
81.7837
85.5786
87.3845
88.3595
88.9336
89.2904
89.5194
89.6685
89.766
89.8292
89.8689
89.8921
89.9028
89.9028
89.8921
89.8689
89.8292
89.766
89.6685
89.5194
89.2904
88.9336
88.3595
87.3845
85.5786
81.7837
72.4265
63.2957
55.2698
48.3897
42.5795
37.7601
33.8587
30.8082
28.548
27.0284
26.2154
26.0955
26.678
27.9952
30.0984
33.0512
36.9188
41.7565
47.5953
54.4306
62.2114
70.8351
80.147
89.9469
100
100
89.9473
80.1475
70.8352
62.2102
54.4266
47.5861
41.7382
36.8862
32.9959
30.0089
27.855
26.465
25.7799
25.7585
26.3808
27.6478
29.5788
32.2058
35.5665
39.695
44.6094
50.2903
56.629
63.2956
69.4393
73.4039
75.8387
77.3522
78.3159
78.9422
79.3547
79.6281
79.8087
79.9266
80.0011
80.0448
80.0649
80.0649
80.0448
80.0011
79.9266
79.8087
79.6281
79.3547
78.9422
78.3159
77.3522
75.8387
73.404
69.4393
63.2956
56.629
50.2904
44.6095
39.6951
35.5667
32.2061
29.5791
27.6482
26.3813
25.7591
25.7805
26.4657
27.8559
30.0098
32.9968
36.8871
41.7392
47.587
54.4274
62.2109
70.8357
80.1479
89.9475
100
100
89.9491
80.1508
70.8394
62.2143
54.4289
47.5841
41.7281
36.8622
32.9498
29.9288
27.7246
26.2615
25.4733
25.3094
25.7387
26.7492
28.345
30.54
33.3496
36.7792
40.808
45.3654
50.2903
55.2697
59.7825
63.2264
65.6626
67.3376
68.4796
69.2566
69.7845
70.1417
70.3814
70.5394
70.6402
70.6994
70.7268
70.7268
70.6994
70.6402
70.5394
70.3814
70.1417
69.7845
69.2566
68.4796
67.3376
65.6626
63.2264
59.7825
55.2697
50.2903
45.3654
40.8081
36.7792
33.3497
30.5401
28.3451
26.7494
25.7389
25.3097
25.4736
26.2619
27.725
29.9293
32.9502
36.8627
41.7286
47.5845
54.4294
62.2147
70.8397
80.151
89.9492
100
100
89.9526
80.1576
70.8487
62.2251
54.4394
47.5916
41.7288
36.8504
32.9174
29.8643
27.6117
26.0783
25.1904
24.8884
25.1304
25.892
27.1631
28.9414
31.2244
33.9976
37.2204
40.808
44.6094
48.3895
51.8403
54.6814
56.8638
58.4729
59.6312
60.452
61.0267
61.4244
61.6956
61.8766
61.993
62.062
62.0939
62.0939
62.062
61.993
61.8766
61.6956
61.4244
61.0267
60.452
59.6312
58.4729
56.8638
54.6814
51.8403
48.3895
44.6094
40.808
37.2205
33.9976
31.2244
28.9415
27.1631
25.8921
25.1305
24.8885
25.1905
26.0785
27.6119
29.8645
32.9176
36.8507
41.7291
47.5918
54.4396
62.2252
70.8488
80.1577
89.9527
100
100
89.9589
80.1699
70.8662
62.2465
54.4628
47.6144
41.7471
36.8586
32.9075
29.8252
27.5281
25.9295
24.9486
24.5177
24.5851
25.115
26.0851
27.4801
29.2846
31.4728
33.9976
36.7792
39.695
42.5792
45.2429
47.5282
49.3756
50.8058
51.8791
52.6661
53.2322
53.6323
53.9097
54.0973
54.219
54.2916
54.3253
54.3253
54.2916
54.219
54.0973
53.9097
53.6323
53.2322
52.6661
51.8791
50.8058
49.3756
47.5282
45.2429
42.5792
39.695
36.7792
33.9976
31.4728
29.2846
27.4801
26.0851
25.1151
24.5851
24.5178
24.9487
25.9295
27.5282
29.8253
32.9076
36.8587
41.7472
47.6145
54.4629
62.2466
70.8662
80.1699
89.959
100
100
89.9697
80.1908
70.8965
62.2846
54.5067
47.6611
41.7926
36.8973
32.9318
29.8247
27.4885
25.8317
24.7675
24.2207
24.131
24.4533
25.1551
26.2114
27.5983
29.2846
31.2244
33.3496
35.5665
37.7597
39.8076
41.6105
43.1178
44.3259
45.262
45.9678
46.4875
46.862
47.1256
47.3061
47.4244
47.4954
47.5286
47.5286
47.4954
47.4244
47.3061
47.1256
46.862
46.4875
45.9678
45.262
44.3259
43.1178
41.6105
39.8076
37.7597
35.5665
33.3496
31.2244
29.2846
27.5983
26.2115
25.1551
24.4534
24.131
24.2207
24.7675
25.8317
27.4886
29.8247
32.9319
36.8973
41.7926
47.6612
54.5068
62.2847
70.8965
80.1909
89.9697
100
100
89.9871
80.2251
70.9463
62.3483
54.5817
47.744
41.8791
36.9818
33.0069
29.8804
27.5119
25.8055
24.6694
24.0221
23.7962
23.939
24.41
25.1772
26.2114
27.4801
28.9414
30.54
32.2058
33.8582
35.416
36.8125
38.0076
38.9902
39.7706
40.3724