# vtk DataFile Version 2.0
LBE two cylinders
ASCII
DATASET STRUCTURED_POINTS
DIMENSIONS 76 76 1
ASPECT_RATIO 1 1 1
ORIGIN 0 0 0
POINT_DATA 5776
SCALARS temp double 1
LOOKUP_TABLE default
100
100
100
100
100
100
100
100
100
100
100
100
100
100
100
100
100
100
100
100
100
100
100
100
100
100
-300
-300
-300
-300
-300
-300
-300
-300
-300
-300
-300
-300
-300
-300
100
100
100
100
100
100
100
100
100
100
100
100
100
100
100
100
100
100
100
100
100
100
100
100
100
100
-300
-300
-300
-300
-300
-300
-300
-300
-300
-300
100
99.0515
98.122
97.2297
96.3911
95.6204
94.9293
94.3266
93.8187
93.4097
93.1018
92.8962
92.7934
92.7934
92.8962
93.1018
93.4097
93.8187
94.3266
94.9293
95.6204
96.3911
97.2297
98.122
99.0515
100
-300
-300
-300
-300
-300
-300
-300
-300
-300
-300
-300
-300
-300
-300
100
99.0558
98.1304
97.2419
96.4066
95.6388
94.9498
94.3486
93.8415
93.4325
93.1241
92.9175
92.8132
92.8114
92.9123
93.1158
93.4216
93.8287
94.3347
94.9357
95.6253
96.3947
97.2322
98.1236
99.0523
100
-300
-300
-300
-300
-300
-300
-300
-300
-300
-300
100
98.1207
96.2792
94.5114
92.8499
91.3231
89.9538
88.7599
87.7536
86.9432
86.3332
85.9259
85.7221
85.7221
85.9259
86.3332
86.9432
87.7536
88.7599
89.9538
91.3231
92.8499
94.5114
96.2792
98.1207
100
-300
-300
-300
-300
-300
-300
-300
-300
-300
-300
-300
-300
-300
-300
100
98.1302
96.2977
94.5383
92.8842
91.3635
89.999
88.8082
87.8037
86.9935
86.3824
85.9728
85.7658
85.7619
85.9613
86.364
86.9694
87.7755
88.7776
89.9679
91.3339
92.858
94.517
96.2828
98.1225
100
-300
-300
-300
-300
-300
-300
-300
-300
-300
-300
100
97.2247
94.505
91.8942
89.4405
87.1856
85.1635
83.4002
81.9142
80.7173
79.8165
79.215
78.9141
78.9141
79.215
79.8165
80.7173
81.9142
83.4002
85.1635
87.1856
89.4405
91.8942
94.505
97.2247
100
-300
-300
-300
-300
-300
-300
-300
-300
-300
-300
-300
-300
-300
-300
100
97.2411
94.5373
91.9411
89.5002
87.256
85.2422
83.4845
82.0014
80.8049
79.9021
79.2966
78.9901
78.9832
79.2765
79.8701
80.763
81.9522
83.4311
85.188
87.2044
89.4545
91.904
94.5112
97.2276
100
-300
-300
-300
-300
-300
-300
-300
-300
-300
-300
100
96.3781
92.8289
89.4217
86.2196
83.277
80.6381
78.3369
76.3976
74.8357
73.6601
72.8751
72.4824
72.4824
72.8751
73.6601
74.8357
76.3976
78.3369
80.6381
83.277
86.2196
89.4217
92.8289
96.3781
100
-300
-300
-300
-300
-300
-300
-300
-300
-300
-300
-300
-300
-300
-300
100
96.4046
92.8808
89.4972
86.3157
83.3903
80.7647
78.4726
76.538
74.9767
73.7979
73.0065
72.6048
72.5938
72.9742
73.7463
74.909
76.4586
78.3864
80.6772
83.307
86.2418
89.4373
92.8387
96.3828
100
-300
-300
-300
-300
-300
-300
-300
-300
-300
-300
100
95.5933
91.2751
87.1298
83.2339
79.6536
76.443
73.6433
71.2838
69.3834
67.9531
66.9981
66.5203
66.5203
66.9981
67.9531
69.3834
71.2838
73.6433
76.443
79.6536
83.2339
87.1298
91.2751
95.5933
100
-300
-300
-300
-300
-300
-300
-300
-300
-300
-300
-300
-300
-300
-300
100
95.6344
91.3557
87.2468
83.383
79.8295
76.6395
73.8539
71.5018
69.6024
68.1672
67.2021
66.7102
66.693
67.1517
68.0867
69.4969
71.378
73.7196
76.5032
79.6998
83.2679
87.1535
91.2901
95.6005
100
-300
-300
-300
-300
-300
-300
-300
-300
-300
-300
100
94.8795
89.8618
85.0449
80.5179
76.3577
72.627
69.3737
66.6321
64.4239
62.7619
61.6522
61.097
61.097
61.6522
62.7619
64.4239
66.6321
69.3737
72.627
76.3577
80.5179
85.0449
89.8618
94.8795
100
-300
-300
-300
-300
-300
-300
-300
-300
-300
-300
-300
-300
-300
-300
100
94.9417
89.9839
85.2222
80.744
76.6244
72.925
69.6931
66.9627
64.756
63.0866
61.9616
61.385
61.3588
61.8848
62.9639
64.5954
66.7742
69.4887
72.7175
76.4269
80.5688
85.0803
89.884
94.8902
100
-300
-300
-300
-300
-300
-300
-300
-300
-300
-300
100
94.2423
88.6002
83.1838
78.0935
73.4156
69.2207
65.5627
62.4798
59.9969
58.1282
56.8803
56.2561
56.2561
56.8803
58.1282
59.9969
62.4798
65.5627
69.2207
73.4156
78.0935
83.1838
88.6002
94.2423
100
-300
-300
-300
-300
-300
-300
-300
-300
-300
-300
-300
-300
-300
-300
100
94.3349
88.7818
83.4478
78.4301
73.8127
69.6645
66.0383
62.9722
60.4916
58.6116
57.3411
56.6846
56.6455
57.226
58.4281
60.2511
62.6902
65.7324
69.3541
73.5173
78.1681
83.2356
88.6326
94.2578
100
-300
-300
-300
-300
-300
-300
-300
-300
-300
-300
100
93.6841
87.495
81.5536
75.9699
70.8385
66.2369
62.2243
58.8427
56.1191
54.0692
52.7005
52.0157
52.0157
52.7005
54.0692
56.1191
58.8427
62.2243
66.2369
70.8385
75.9699
81.5536
87.495
93.6841
100
-300
-300
-300
-300
-300
-300
-300
-300
-300
-300
-300
-300
-300
-300
100
93.8196
87.7608
81.9399
76.4625
71.4198
66.8867
62.9209
59.5639
56.8436
54.7773
53.375
52.6429
52.5852
53.2055
54.5069
56.4895
59.1485
62.4706
66.4299
70.985
76.077
81.6277
87.5412
93.7063
100
-300
-300
-300
-300
-300
-300
-300
-300
-300
-300
100
93.2043
86.545
80.1522
74.1443
68.6231
63.672
59.3546
55.7161
52.7857
50.58
49.1073
48.3706
48.3706
49.1073
50.58
52.7857
55.7161
59.3546
63.672
68.6231
74.1443
80.1522
86.545
93.2043
100
-300
-300
-300
-300
-300
-300
-300
-300
-300
-300
-300
-300
-300
-300
100
93.3993
86.9277
80.7086
74.8539
69.4607
64.6085
60.3586
56.7558
53.8301
51.6007
50.0794
49.2738
49.19
49.8334
51.2082
53.3162
56.1533
59.7056
63.946
68.8304
74.2952
80.2561
86.6096
93.2352
100
-300
-300
-300
-300
-300
-300
-300
-300
-300
-300
100
92.7995
85.7435
78.9699
72.6041
66.754
61.508
56.9335
53.0783
49.9734
47.6364
46.076
45.2954
45.2954
46.076
47.6364
49.9734
53.0783
56.9335
61.508
66.754
72.6041
78.9699
85.7435
92.7995
100
-300
-300
-300
-300
-300
-300
-300
-300
-300
-300
-300
-300
-300
-300
100
93.0759
86.2861
79.7588
73.6105
67.9423
62.8368
58.3585
54.5541
51.4558
49.0849
47.455
46.5759
46.4561
47.103
48.5235
50.7211
53.6927
57.4251
61.8904
67.042
72.8125
79.1127
85.8319
92.8416
100
-300
-300
-300
-300
-300
-300
-300
-300
-300
-300
100
92.4643
85.0798
77.9909
71.3288
65.2064
59.7162
54.9288
50.8942
47.6447
45.199
43.566
42.7491
42.7491
43.566
45.199
47.6447
50.8942
54.9288
59.7162
65.2064
71.3288
77.9909
85.0798
92.4643
100
-300
-300
-300
-300
-300
-300
-300
-300
-300
-300
-300
-300
-300
-300
100
92.85
85.8372
79.0923
72.7343
66.8663
61.5731
56.9206
52.9573
49.7172
47.2235
45.4925
44.5367
44.3676
44.9961
46.4319
48.6812
51.7432
55.6055
60.24
65.5987
71.611
78.183
85.198
92.5203
100
-300
-300
-300
-300
-300
-300
-300
-300
-300
-300
100
92.1918
84.5404
77.1953
70.2923
63.9487
58.26
53.2996
49.1191
45.7523
43.2182
41.5262
40.6797
40.6797
41.5262
43.2182
45.7523
49.1191
53.2996
58.26
63.9487
70.2923
77.1953
84.5404
92.1918
100
-300
-300
-300
-300
-300
-300
-300
-300
-300
-300
-300
-300
-300
-300
100
92.722
85.5815
78.7096
72.2255
66.2327
60.816
56.0421
51.9604
48.6064
46.0055
44.1771
43.1374
42.902
43.4862
44.9041
47.1655
50.2725
54.2147
58.9643
64.4726
70.6665
77.4479
84.6948
92.2646
100
-300
-300
-300
-300
-300
-300
-300
-300
-300
-300
100
91.9745
84.1101
76.5606
69.4654
62.9453
57.0984
51.9999
47.7031
44.2426
41.638
39.8989
39.0289
39.0289
39.8989
41.638
44.2426
47.7031
51.9999
57.0984
62.9453
69.4654
76.5606
84.1101
91.9745
100
-300
-300
-300
-300
-300
-300
-300
-300
-300
-300
-300
-300
-300
-300
100
92.6922
85.5198
78.6116
72.0849
66.0415
60.5648
55.7206
51.5586
48.1156
45.4193
43.4928
42.3573
42.0339
42.5438
43.9069
46.138
49.2434
53.2154
58.0276
63.6309
69.9505
76.8847
84.3063
92.0664
100
-300
-300
-300
-300
-300
-300
-300
-300
-300
-300
100
91.8043
83.7732
76.0635
68.818
62.1595
56.1887
50.9821
46.5943
43.0604
40.4007
38.6247
37.7363
37.7363
38.6247
40.4007
43.0604
46.5943
50.9821
56.1887
62.1595
68.818
76.0635
83.7732
91.8043
100
-300
-300
-300
-300
-300
-300
-300
-300
-300
-300
-300
-300
-300
-300
100
92.7614
85.6534
78.8003
72.3151
66.2953
60.8216
55.9573
51.7512
48.2407
45.4565
43.4262
42.1773
41.7385
42.1388
43.4057
45.5609
48.616
52.5673
57.3907
63.0376
69.4317
76.4682
84.015
91.9165
100
-300
-300
-300
-300
-300
-300
-300
-300
-300
-300
100
91.6735
83.5141
75.6814
68.3202
61.5555
55.4893
50.1997
45.7419
42.1516
39.4494
37.6452
36.7425
36.7425
37.6452
39.4494
42.1516
45.7419
50.1997
55.4893
61.5555
68.3202
75.6814
83.5141
91.6735
100
-300
-300
-300
-300
-300
-300
-300
-300
-300
-300
-300
-300
-300
-300
100
92.9309
85.9851
79.2798
72.9212
67.0006
61.5933
56.7585
52.5428
48.9837
46.1146
43.969
42.5826
41.994
42.2429
43.3667
45.3959
48.3494
52.2285
57.0126
62.6542
69.0764
76.1712
83.8016
91.8051
100
-300
-300
-300
-300
-300
-300
-300
-300
-300
-300
100
91.5747
83.3186
75.393
67.9445
61.0996
54.9615
49.6092
45.0985
41.4657
38.7315
36.9059
35.9926
35.9926
36.9059
38.7315
41.4657
45.0985
49.6092
54.9615
61.0996
67.9445
75.393
83.3186
91.5747
100
-300
-300
-300
-300
-300
-300
-300
-300
-300
-300
-300
-300
-300
-300
100
93.2027
86.5188
80.0561
73.9114
68.1675
62.8917
58.137
53.9458
50.3543
47.3988
45.1196
43.5635
42.7825
42.8302
43.7572
45.6052
48.4021
52.156
56.8504
62.4401
68.848
75.9637
83.6449
91.7209
100
-300
-300
-300
-300
-300
-300
-300
-300
-300
-300
100
91.5015
83.1737
75.1793
67.6661
60.7618
54.5704
49.1716
44.6218
40.9575
38.1995
36.358
35.4368
35.4368
36.358
38.1995
40.9575
44.6218
49.1716
54.5704
60.7618
67.6661
75.1793
83.1737
91.5015
100
-300
-300
-300
-300
-300
-300
-300
-300
-300
-300
-300
-300
-300
-300
100
93.5786
87.2586
81.1358
75.2954
69.8089
64.7332
60.1119
55.9802
52.3711
49.3227
46.884
45.1162
44.0897
43.8769
44.5451
46.1505
48.7316
52.3046
56.8587
62.3516
68.707
75.8126
83.5206
91.6512
100
-300
-300
-300
-300
-300
-300
-300
-300
-300
-300
100
91.4483
83.0683
75.0237
67.4635
60.5159
54.2858
48.8532
44.2749
40.5876
37.8124
35.9594
35.0324
35.0324
35.9594
37.8124
40.5876
44.2749
48.8531
54.2858
60.5159
67.4635
75.0237
83.0683
91.4483
100
-300
-300
-300
-300
-300
-300
-300
-300
-300
-300
-300
-300
-300
-300
100
94.0603
88.2081
82.5252
77.0831
71.9395
67.1375
62.7079
58.6743
55.0622
51.9096
49.2754
47.2412
45.903
45.3585
45.6969
46.9912
49.2926
52.6264
56.9882
62.3403
68.6083
75.6792
83.4001
91.5807
100
-300
-300
-300
-300
-300
-300
-300
-300
-300
-300
100
91.4102
82.9929
74.9126
67.3187
60.3403
54.0824
48.6256
44.027
40.3234
37.5358
35.6746
34.7434
34.7434
35.6746
37.5358
40.3233
44.027
48.6256
54.0824
60.3402
67.3187
74.9126
82.9929
91.4102
100
-300
-300
-300
-300
-300
-300
-300
-300
-300
-300
-300
-300
-300
-300
100
94.648
89.3683
84.2275
79.2815
74.572
70.1254
65.9545
62.0651
58.4677
55.1945
52.3152
49.9419
48.2082
47.2467
47.1739
48.0819
50.0352
53.0685
57.1845
62.3514
68.4992
75.5166
83.2472
91.4893
100
-300
-300
-300
-300
-300
-300
-300
-300
-300
-300
100
91.3835
82.9401
74.8346
67.2171
60.217
53.9397
48.4659
43.853
40.1379
37.3417
35.4747
34.5407
34.5407
35.4747
37.3417
40.1379
43.853
48.4659
53.9397
60.217
67.2171
74.8346
82.9401
91.3835
100
-300
-300
-300
-300
-300
-300
-300
-300
-300
-300
-300
-300
-300
-300
100
95.3397
90.7361
86.2399
81.891
77.7137
73.7147
69.8838
66.1994
62.6434
59.2286
56.0337
53.221
50.9842
49.5039
48.9282
49.3689
50.9023
53.5714
57.386
62.3216
68.3162
75.2648
83.0131
91.3488
100
-300
-300
-300
-300
-300
-300
-300
-300
-300
-300
100
91.3651
82.9036
74.7809
67.1471
60.132
53.8413
48.3559
43.7331
40.0101
37.2079
35.3369
34.4009
34.4009
35.3369
37.2079
40.01
43.7331
48.3559
53.8413
60.132
67.1471
74.7808
82.9036
91.3651
100
-300
-300
-300
-300
-300
-300
-300
-300
-300
-300
-300
-300
-300
-300
100
96.13
92.3016
88.5504
84.9008
81.3602
77.9151
74.5274
71.1361
67.6711
64.0928
60.4729
57.0751
54.1942
52.0745
50.8968
50.7871
51.8287
54.069
57.5238
62.1775
67.9809
74.8449
82.6279
91.1158
100
-300
-300
-300
-300
-300
-300
-300
-300
-300
-300
100
91.3527
82.8789
74.7445
67.0997
60.0745
53.7747
48.2814
43.6519
39.9235
37.1173
35.2436
34.3063
34.3062
35.2436
37.1173
39.9235
43.6519
48.2813
53.7746
60.0744
67.0996
74.7444
82.8789
91.3526
100
-300
-300
-300
-300
-300
-300
-300
-300
-300
-300
-300
-300
-300
-300
100
97.009
94.0459
91.1334
88.2828
85.4881
82.7184
79.9083
76.9476
73.6783
69.9309
65.6912
61.4798
57.7686
54.8739
52.9951
52.2577
52.7408
54.4899
57.5236
61.8364
67.398
74.1488
81.9841
90.7156
100
-300
-300
-300
-300
-300
-300
-300
-300
-300
-300
100
91.3444
82.8625
74.7203
67.0681
60.0362
53.7304
48.2318
43.5979
39.8659
37.057
35.1815
34.2433
34.2433
35.1815
37.057
39.8658
43.5978
48.2317
53.7303
60.0361
67.068
74.7202
82.8625
91.3443
100
-300
-300
-300
-300
-300
-300
-300
-300
-300
-300
-300
-300
-300
-300
100
97.9614
95.9395
93.9465
91.9853
90.0432
88.0821
86.0222
83.7113
80.8724
77.047
71.7568
66.3515
61.5758
57.773
55.1123
53.6886
53.5602
54.7622
57.3116
61.2116
66.4554
73.0293
80.9066
90.0013
100
-300
-300
-300
-300
-300
-300
-300
-300
-300
-300
100
91.339
82.8518
74.7044
67.0475
60.0112
53.7014
48.1994
43.5626
39.8283
37.0176
35.141
34.2021
34.2021
35.1409
37.0175
39.8281
43.5624
48.1992
53.7012
60.011
67.0473
74.7043
82.8517
91.3389
100
-300
-300
-300
-300
-300
-300
-300
-300
-300
-300
-300
-300
-300
-300
100
98.9668
97.9412
96.9283
95.9277
94.9292
93.9051
92.794
91.4589
89.5698
86.2295
78.6617
71.4444
65.3738
60.5846
57.1118
54.9798
54.2111
54.8227
56.8252
60.2253
65.0358
71.295
79.1007
88.6395
100
-300
-300
-300
-300
-300
-300
-300
-300
-300
-300
100
91.3355
82.8449
74.6943
67.0343
59.9951
53.6828
48.1786
43.5399
39.8041
36.9923
35.1148
34.1756
34.1755
35.1147
36.9921
39.8038
43.5396
48.1782
53.6824
59.9947
67.0339
74.694
82.8447
91.3354
100
-300
-300
-300
-300
-300
-300
-300
-300
-300
-300
-300
-300
-300
-300
100
100
100
100
100
100
100
100
100
100
100
85.7638
76.1163
68.7649
63.0719
58.8477
56.0382
54.6321
54.6293
56.0298
58.8342
63.0538
68.7434
76.0939
85.7457
100
100
100
100
100
100
100
100
100
100
100
100
91.3333
82.8406
74.6878
67.0259
59.9849
53.671
48.1654
43.5256
39.7888
36.9762
35.0983
34.1588
34.1587
35.098
36.9759
39.7883
43.525
48.1647
53.6704
59.9843
67.0253
74.6873
82.8402
91.3331
100
-300
-300
-300
-300
-300
-300
-300
-300
-300
-300
-300
-300
-300
-300
-300
-300
-300
-300
-300
-300
-300
-300
-300
-300
100
88.6415
79.1005
71.2897
65.024
60.2064
56.7992
54.7899
54.172
54.9351
57.0623
60.5315
65.3186
71.3894
78.6101
86.1851
89.5292
91.4215
92.7599
93.8747
94.9029
95.906
96.9117
97.93
98.9611
100
100
91.3319
82.8379
74.6838
67.0207
59.9786
53.6637
48.1572
43.5166
39.7792
36.9662
35.0879
34.1481
34.148
35.0875
36.9655
39.7783
43.5156
48.156
53.6625
59.9775
67.0197
74.683
82.8373
91.3316
100
-300
-300
-300
-300
-300
-300
-300
-300
-300
-300
-300
-300
-300
-300
-300
-300
-300
-300
-300
-300
-300
-300
-300
-300
100
89.9922
80.887
72.9983
66.4126
61.1573
57.2466
54.6875
53.477
53.5983
55.0164
57.6733
61.4741
66.2501
71.6584
76.9537
80.7845
83.6294
85.9474
88.0154
89.9856
91.9378
93.91
95.9148
97.949
100
100
91.3311
82.8362
74.6814
67.0175
59.9747
53.6592
48.1521
43.511
39.7732
36.9598
35.0813
34.1414
34.1411
35.0806
36.9587
39.7717
43.5093
48.1501
53.6572
59.9728
67.0158
74.68
82.8352
91.3305
100
-300
-300
-300
-300
-300
-300
-300
-300
-300
-300
-300
-300
-300
-300
-300
-300
-300
-300
-300
-300
-300
-300
-300
-300
100
90.6952
81.9432
74.0875
67.3172
61.7372
57.4077
54.3592
52.5976
52.1044
52.8341
54.7078
57.6
61.3117
65.5263
69.7718
73.527
76.8062
79.7788
82.6028
85.3883
88.2006
91.0703
94.0032
96.9874
100
100
91.3306
82.8352
74.6799
67.0156
59.9723
53.6564
48.1489
43.5075
39.7694
36.9558
35.077
34.1369
34.1365
35.0758
36.9539
39.7669
43.5046
48.1457
53.653
59.9691
67.0126
74.6775
82.8335
91.3297
100
-300
-300
-300
-300
-300
-300
-300
-300
-300
-300
-300
-300
-300
-300
-300
-300
-300
-300
-300
-300
-300
-300
-300
-300
100
91.0812
82.5592
74.7432
67.848
62.0159
57.3364
53.8591
51.5998
50.5431
50.6414
51.8118
53.9279
56.8093
60.2116
63.8396
67.4298
70.9101
74.3202
77.7301
81.2005
84.7692
88.4494
92.2331
96.0955
100
100
91.3303
82.8346
74.679
67.0143
59.9708
53.6546
48.1469
43.5052
39.7668
36.9529
35.0738
34.1334
34.1328
35.0719
36.9498
39.7627
43.5003
48.1415
53.649
59.9654
67.0095
74.675
82.8317
91.3288
100
-300
-300
-300
-300
-300
-300
-300
-300
-300
-300
-300
-300
-300
-300
-300
-300
-300
-300
-300
-300
-300
-300
-300
-300
100
91.2944
82.9055
75.1061
68.1093
62.0708
57.0958
53.2471
50.5494
48.9932
48.5356
49.1002
50.5754
52.8128
55.632
58.8392
62.2719
65.8513
69.5646
73.4296
77.4675
81.6882
86.0843
90.6306
95.2865
100
100
91.3301
82.8342
74.6784
67.0135
59.9698
53.6533
48.1454
43.5034
39.7647
36.9505
35.071
34.1303
34.1292
35.0679
36.9455
39.758
43.4955
48.1366
53.6443
59.961
67.0056
74.6719
82.8295
91.3276
100
-300
-300
-300
-300
-300
-300
-300
-300
-300
-300
-300
-300
-300
-300
-300
-300
-300
-300
-300
-300
-300
-300
-300
-300
100
91.4069
83.0841
75.2762
68.1865
61.9725
56.7467
52.5795
49.5036
47.5163
46.5832
46.6396
47.5934
49.3282
51.7113
54.6088
57.9088
61.5413
65.4741
69.6963
74.2015
78.9763
83.9933
89.2095
94.5678
100
100
91.3299
82.8339
74.6779
67.0129
59.969
53.6523
48.144
43.5018
39.7626
36.948
35.068
34.1266
34.125
35.063
36.9399
39.752
43.489
48.13
53.6377
59.9548
67.0001
74.6674
82.8264
91.326
100
-300
-300
-300
-300
-300
-300
-300
-300
-300
-300
-300
-300
-300
-300
-300
-300
-300
-300
-300
-300
-300
-300
-300
-300
100
91.4585
83.1584
75.3231
68.1452
61.7794
56.3403
51.9033
48.5067
46.1554
44.8242
44.4618
44.9953
46.3352
48.3838
51.045
54.2371
57.9011
61.9987
66.504
71.3926
76.6325
82.1794
87.9737
93.9419
100
100
91.3298
82.8336
74.6775
67.0123
59.9682
53.6512
48.1426
43.4999
39.7602
36.9448
35.0641
34.1219
34.1192
35.0562
36.9322
39.7434
43.4798
48.1203
53.6281
59.9457
66.992
74.6608
82.8217
91.3236
100
-300
-300
-300
-300
-300
-300
-300
-300
-300
-300
-300
-300
-300
-300
-300
-300
-300
-300
-300
-300
-300
-300
-300
-300
100
91.4733
83.1687
75.2943
68.0331
61.5357
55.9165
51.2534
47.5896
44.9363
43.2777
42.575
42.772
43.8012
45.5899
48.0679
51.1737
54.8582
59.0828
63.814
69.0154
74.6417
80.6341
86.9185
93.4068
100
100
91.3297
82.8334
74.6771
67.0117
59.9672
53.6499
48.1408
43.4974
39.7569
36.9406
35.0587
34.1151
34.111
35.0465
36.9209
39.7307
43.466
48.106
53.6138
59.9321
66.9799
74.6509
82.8147
91.3199
100
-300
-300
-300
-300
-300
-300
-300
-300
-300
-300
-300
-300
-300
-300
-300
-300
-300
-300
-300
-300
-300
-300
-300
-300
100
91.4661
83.141
75.2217
67.8835
61.2727
55.5027
50.6528
46.7696
43.8702
41.9465
40.9708
40.9009
41.686
43.2724
45.6078
48.6455
52.3446
56.6686
61.58
67.0351
72.9786
79.3402
86.0336
92.9576
100
100
91.3295
82.833
74.6765
67.0108
59.966
53.6481
48.1383
43.494
39.7524
36.9346
35.0509
34.1054
34.0991
35.0323
36.9044
39.7121
43.4458
48.0847
53.5924
59.9116
66.9615
74.6359
82.804
91.3144
100
-300
-300
-300
-300
-300
-300
-300
-300
-300
-300
-300
-300
-300
-300
-300
-300
-300
-300
-300
-300
-300
-300
-300
-300
100
91.446
83.0915
75.1257
67.7177
61.0104
55.1157
50.1136
46.0532
42.9564
40.8216
39.63
39.3505
39.9454
41.3748
43.5998
46.5844
50.2949
54.6971
59.7521
65.4111
71.6118
78.275
85.304
92.587
100
100
91.3293
82.8326
74.6758
67.0097
59.9643
53.6457
48.1349
43.4893
39.746
36.9261
35.04
34.0915
34.082
35.0117
36.8804
39.6849
43.416
48.0534
53.5607
59.8813
66.9343
74.6134
82.788
91.3061
100
-300
-300
-300
-300
-300
-300
-300
-300
-300
-300
-300
-300
-300
-300
-300
-300
-300
-300
-300
-300
-300
-300
-300
-300
100
91.4183
83.0299
75.0182
67.5481
60.7594
54.7628
49.6385
45.4377
42.1854
39.8854
38.5258
38.0841
38.5325
39.8414
41.982
44.9262
48.6461
53.1101
58.2786
64.1001
70.5068
77.4126
84.7128
92.2864
100
100
91.329
82.832
74.6748
67.0082
59.962
53.6424
48.1301
43.4827
39.737
36.9142
35.0245
34.0719
34.0576
34.9824
36.846
39.6458
43.373
48.0077
53.5145
59.8367
66.8941
74.5803
82.7644
91.2938
100
-300
-300
-300
-300
-300
-300
-300
-300
-300
-300
-300
-300
-300
-300
-300
-300
-300
-300
-300
-300
-300
-300
-300
-300
100
91.3857
82.9606
74.9044
67.3791
60.5224
54.4437
49.2233
44.9132
41.5412
39.1148
37.6273
37.0626
37.4002
38.6184
40.6955
43.61
47.3382
51.8509
57.1088
63.0582
69.6277
76.7258
84.2417
92.0468
100
100
91.3287
82.8312
74.6735
67.0061
59.9589
53.6378
48.1237
43.4737
39.7247
36.8978
35.0031
34.0446
34.0236
34.9411
36.7974
39.5902
43.3115
47.9422
53.4477
59.7721
66.8355
74.5318
82.7297
91.2756
100
-300
-300
-300
-300
-300
-300
-300
-300
-300
-300
-300
-300
-300
-300
-300
-300
-300
-300
-300
-300
-300
-300
-300
-300
100
91.3484
82.884
74.7844
67.2096
60.296
54.152
48.8574
44.4649
41.0034
38.4833
36.9012
36.2459
36.5023
37.654
39.6852
42.5788
46.3149
50.8662
56.1938
62.243
68.9394
76.1878
83.8724
91.8589
100
100
91.3282
82.8302
74.6718
67.0033
59.9548
53.6318
48.115
43.4616
39.7081
36.8755
34.9739
34.0071
33.9768
34.8841
36.7297
39.5124
43.2249
47.8494
53.3524
59.6793
66.7509
74.4615
82.6791
91.2492
100
-300
-300
-300
-300
-300
-300
-300
-300
-300
-300
-300
-300
-300
-300
-300
-300
-300
-300
-300
-300
-300
-300
-300
-300
100
91.3053
82.7973
74.6535
67.0332
60.0715
53.8762
48.5261
44.0739
40.5488
37.9626
36.3141
35.5954
35.7948
36.9004
38.9001
41.7806
45.5247
50.1069
55.4887
61.6147
68.4089
75.7731
83.5876
91.714
100
100
91.3276
82.8289
74.6695
66.9998
59.9494
53.6238
48.1036
43.4456
39.6861
36.8459
34.9348
33.9567
33.9134
34.8064
36.637
39.405
43.1046
47.7196
53.2182
59.5476
66.6301
74.3604
82.6062
91.2109
100
-300
-300
-300
-300
-300
-300
-300
-300
-300
-300
-300
-300
-300
-300
-300
-300
-300
-300
-300
-300
-300
-300
-300
-300
100
91.253
82.6946
74.5032
66.8386
59.8356
53.6005
48.2112
43.719
40.1528
37.5242
35.8335
35.0742
35.2374
36.3138
38.2944
41.1686
44.9214
49.5287
54.9527
61.1376
68.0062
75.4583
83.3715
91.604
100
100
91.3268
82.8272
74.6666
66.9952
59.9425
53.6136
48.0889
43.4248
39.6574
36.807
34.8833
33.8901
33.8292
34.7024
36.5121
39.2593
42.9399
47.5403
53.0313
59.3627
66.4591
74.2163
82.5015
91.1557
100
-300
-300
-300
-300
-300
-300
-300
-300
-300
-300
-300
-300
-300
-300
-300
-300
-300
-300
-300
-300
-300
-300
-300
-300
100
91.1866
82.5661
74.3201
66.61
59.5701
53.3054
47.8914
43.3772
39.7899
37.1404
35.4285
34.6487
34.7935
35.8555
37.8278
40.7019
44.4646
49.0931
54.5502
60.7802
67.7049
75.223
83.21
91.5219
100
100
91.3259
82.8251
74.663
66.9895
59.9338
53.6008
48.0703
43.3984
39.6207
36.7572
34.817
33.8037
33.7191
34.5657
36.3466
39.0645
42.7179
47.2963
52.7742
59.1057
66.2187
74.0117
82.3517
91.0764
100
-300
-300
-300
-300
-300
-300
-300
-300
-300
-300
-300
-300
-300
-300
-300
-300
-300
-300
-300
-300
-300
-300
-300
-300
100
91.0985
82.398
74.0858
66.3259
59.2523
52.9672
47.5426
43.0239
39.435
36.7844
35.0709
34.2888
34.4311
35.4918
37.4655
40.3455
44.1199
48.7671
54.2508
60.5153
67.4823
75.0494
83.091
91.4614
100
100
91.3247
82.8226
74.6586
66.9825
59.9231
53.5849
48.0472
43.3655
39.5749
36.6945
34.733
33.6937
33.5781
34.3891
36.131
38.8085
42.4231
46.9684
52.4245
58.7515
65.8833
73.7227
82.1378
90.9622
100
-300
-300
-300
-300
-300
-300
-300
-300
-300
-300
-300
-300
-300
-300
-300
-300
-300
-300
-300
-300
-300
-300
-300
-300
100
90.9778
82.1703
73.7745
65.958
58.8533
52.5581
47.1384
42.6336
39.0629
36.4312
34.7351
33.9678
34.1226
35.1942
37.1784
40.07
43.8584
48.5233
54.0291
60.3205
67.3194
74.9228
83.0044
91.4174
100
100
91.3233
82.8196
74.6534
66.9742
59.9103
53.5658
48.0193
43.3255
39.5187
36.6173
34.629
33.5564
33.4009
34.1654
35.8554
38.4778
42.0377
46.5343
51.9548
58.2681
65.4179
73.315
81.8316
90.797
100
-300
-300
-300
-300
-300
-300
-300
-300
-300
-300
-300
-300
-300
-300
-300
-300
-300
-300
-300
-300
-300
-300
-300
-300
100
90.8078
81.8539
73.3505
65.4689
58.3375
52.0456
46.6495
42.1802
38.6497
36.0579
34.3986
33.6633
33.8451
34.9392
36.9428
39.8517
43.657
48.3395
53.8646
60.1777
67.2009
74.8312
82.942
91.3857
100
100
91.3218
82.8161
74.6474
66.9645
59.8954
53.5433
47.9862
43.2779
39.4515
36.5243
34.5028
33.3888
33.1827
33.8877
35.5098
38.0584
41.5426
45.9681
51.3317
57.6145
64.775
72.7394
81.3902
90.555
100
-300
-300
-300
-300
-300
-300
-300
-300
-300
-300
-300
-300
-300
-300
-300
-300
-300
-300
-300
-300
-300
-300
-300
-300
100
90.5623
81.4053
72.7633
64.8093
57.661
51.3924
46.045
41.6374
38.1726
35.6443
34.0423
33.3567
33.58
34.7083
36.7398
39.6719
43.4973
48.1982
53.7412
60.0725
67.1147
74.7652
82.8972
91.3631
100
100
91.3201
82.8124
74.6408
66.9537
59.8785
53.5176
47.9481
43.2226
39.3729
36.4147
34.3533
33.1886
32.9201
33.5502
35.0856
37.5372
40.9185
45.2425
50.517
56.7398
63.8913
71.9241
80.7458
90.1924
100
-300
-300
-300
-300
-300
-300
-300
-300
-300
-300
-300
-300
-300
-300
-300
-300
-300
-300
-300
-300
-300
-300
-300
-300
100
90.1972
80.7557
71.94
63.914
56.7704
50.5569
45.2929
40.9806
37.6119
35.1734
33.6511
33.0336
33.3132
34.4872
36.5552
39.5165
43.3656
48.0863
53.6466
59.9939
67.0516
74.7176
82.8653
91.3471
100
100
91.3184
82.8084
74.6337
66.9421
59.86
53.4892
47.9055
43.1601
39.2833
36.289
34.1803
32.9551
32.6113
33.1496
34.5764
36.9038
40.1485
44.3305
49.4698
55.5839
62.6834
70.764
79.7862
89.6284
100
-300
-300
-300
-300
-300
-300
-300
-300
-300
-300
-300
-300
-300
-300
-300
-300
-300
-300
-300
-300
-300
-300
-300
-300
100
89.6315
79.7927
70.7743
62.698
55.6037
49.4956
44.363
40.1885
36.9518
34.6329
33.2144
32.6841
33.0351
34.2662
36.3791
39.3755
43.2519
47.9941
53.5719
59.9341
67.0049
74.683
82.8424
91.3357
100
100
91.3167
82.8046
74.6267
66.9302
59.8407
53.4589
47.8593
43.0917
39.1842
36.1486
33.9853
32.6899
32.2573
32.686
33.9807
36.153
39.2214
43.2109
48.1521
54.0823
61.0477
69.1062
78.3189
88.6966
100
-300
-300
-300
-300
-300
-300
-300
-300
-300
-300
-300
-300
-300
-300
-300
-300
-300
-300
-300
-300
-300
-300
-300
-300
100
88.6986
78.3231
69.1127
61.0571
54.0949
48.1685
43.2316
39.2468
36.1834
34.0164
32.727
32.3033
32.7404
34.0396
36.2054
39.2424
43.1496
47.9153
53.5112
59.8875
66.9699
74.6579
82.8261
91.3276
100
100
91.3154
82.8014
74.6205
66.919
59.8218
53.4283
47.8116
43.0195
39.0781
35.9964
33.772
32.3969
31.8625
32.164
33.3026
35.2876
38.1364
41.875
46.5393
52.1799
58.8728
66.7431
76.0069
87.0077
100
-300
-300
-300
-300
-300
-300
-300
-300
-300
-300
-300
-300
-300
-300
-300
-300
-300
-300
-300
-300
-300
-300
-300
-300
100
87.0089
76.0095
66.7473
58.8786
52.1878
46.5495
41.8878
38.1522
35.3065
33.3248
32.1894
31.8911
32.4283
33.8057
36.0318
39.1143
43.0555
47.8464
53.4608
59.8509
66.9437
74.6398
82.8148
91.3222
100
100
91.3147
82.7995
74.616
66.91
59.8051
53.3996
47.7649
42.9469
38.9691
35.8375
33.5462
32.0832
31.4356
31.5937
32.5541
34.321
36.9073
40.3346
44.6352
49.8572
56.0792
63.449
72.2967
83.5121
100
100
100
100
100
100
100
100
100
100
100
100
100
100
100
100
100
100
100
100
100
100
100
100
100
100
83.5129
72.2983
63.4516
56.0829
49.8621
44.6415
40.3425
36.917
34.3326
32.5677
31.6093
31.4531
32.1024
33.5668
35.8591
38.9912
42.9689
47.7862
53.4194
59.8229
66.9251
74.6279
82.8077
91.3189
100
100
91.3152
82.7999
74.6149
66.9051
59.7932
53.376
47.7232
42.8785
38.8628
35.6786
33.3163
31.7592
30.9894
30.9913
31.7553
33.2784
35.5656
38.6288
42.4872
47.1677
52.7086
59.1634
66.594
74.9695
83.512
87.0075
88.6963
89.6278
90.1915
90.5535
90.7945
90.9582
91.07
91.1457
91.1954
91.2254
91.2395
91.2395
91.2254
91.1954
91.1457
91.07
90.9582
90.7945
90.5535
90.1915
89.6278
88.6963
87.0075
83.5122
74.97
66.595
59.165
52.7108
47.1707
42.491
38.6336
35.5714
33.2854
31.7635
31.0007
30.9999
31.7708
33.3287
35.6916
38.8761
42.8918
47.736
53.388
59.8039
66.9142
74.6221
82.8048
91.3177
100
100
91.3177
82.8041
74.6194
66.9074
59.7898
53.362
47.6919
42.8208
38.7667
35.5289
33.0934
31.4387
30.541
30.3785
30.9339
32.1959
34.1592
36.823
40.1885
44.2548
49.0119
54.4237
60.3832
66.5939
72.2965
76.0066
78.3183
79.7852
80.744
81.3873
81.8268
82.1301
82.3394
82.4821
82.5762
82.6333
82.6601
82.6601
82.6333
82.5762
82.4821
82.3394
82.1301
81.8268
81.3873
80.744
79.7852
78.3183
76.0066
72.2967
66.5943
60.3838
54.4246
49.0133
44.2566
40.1908
36.8259
34.1627
32.2
30.9387
30.3841
30.5473
31.4455
33.1007
35.5366
38.7746
42.8287
47.6995
53.3691
59.7962
66.9128
74.6236
82.807
91.3192
100
100
91.323
82.814
74.6323
66.9208
59.7999
53.3637
47.6781
42.7822
38.691
35.4002
32.8916
31.1386
30.1115
29.7816
30.1237
31.1176
32.7471
34.9983
37.8552
41.293
45.2678
49.6967
54.4236
59.1633
63.4488
66.7426
69.1053
70.7625
71.9216
72.7352
73.3082
73.7117
73.9943
74.189
74.3182
74.3969
74.434
74.434
74.3969
74.3182
74.189
73.9943
73.7117
73.3082
72.7352
71.9216
70.7625
69.1053
66.7427
63.4489
59.1635
54.424
49.6973
45.2686
41.294
37.8565
35
32.7491
31.12
30.1265
29.7848
30.1152
31.1426
32.8959
35.4047
38.6956
42.7867
47.6825
53.3678
59.8036
66.9239
74.6347
82.8157
91.3239
100
100
91.3326
82.8324
74.6578
66.9506
59.8302
53.389
47.6912
42.7735
38.648
35.307
32.728
30.8793
29.7254
29.2308
29.3626
30.0917
31.3923
33.2387
35.6015
38.4404
41.6943
45.2677
49.0119
52.7084
56.0789
58.8721
61.0466
62.6815
63.8882
64.7699
65.4095
65.8698
66.1974
66.4256
66.5784
66.672
66.7163
66.7163
66.672
66.5784
66.4256
66.1974
65.8698
65.4095
64.7699
63.8882
62.6815
61.0467
58.8722
56.079
52.7086
49.0121
45.2681
41.6948
38.4409
35.6023
33.2397
31.3935
30.0931
29.3642
29.2326
29.7275
30.8816
32.7305
35.3096
38.6507
42.7761
47.6937
53.3914
59.8324
66.9524
74.6592
82.8334
91.3331
100
100
91.3483
82.8629
74.7013
67.0042
59.8896
53.4485
47.7434
42.8086
38.6536
35.2672
32.6229
30.6843
29.4103
28.7589
28.6903
29.1676
30.1564
31.6223
33.5266
35.8212
38.4403
41.293
44.2547
47.1675
49.8568
52.1792
54.0811
55.5817
56.7363
57.6087
58.2587
58.7363
59.0816
59.3252
59.4897
59.591
59.6393
59.6393
59.591
59.4897
59.3252
59.0816
58.7363
58.2587
57.6087
56.7363
55.5818
54.0811
52.1792
49.8569
47.1676
44.2548
41.2931
38.4406
35.8215
33.5271
31.6228
30.1571
29.1684
28.6912
28.7599
29.4115
30.6856
32.6243
35.2687
38.6551
42.8101
47.7448
53.4499
59.8908
67.0052
74.7021
82.8635
91.3486
100
100
91.3726
82.9104
74.7699
67.0907
59.9895
53.5558
47.8502
42.905
38.7273
35.3025
32.6006
30.5807
29.1967
28.4011
28.1478
28.3933
29.0967
30.2171
31.7107
33.5266
35.6015
37.8551
40.1884
42.4869
44.6348
46.5386
48.1508
49.4676
50.5133
51.3255
51.9448
52.4085
52.7488
52.9917
53.1573
53.2599
53.3089
53.3089
53.2599
53.1573
52.9917
52.7488
52.4085
51.9448
51.3255
50.5133
49.4676
48.1508
46.5386
44.6348
42.487
40.1884
37.8552
35.6016
33.5268
31.7109
30.2174
29.0971
28.3938
28.1483
28.4017
29.1973
30.5814
32.6013
35.3033
38.7281
42.9059
47.851
53.5565
59.9901
67.0913
74.7703
82.9107
91.3728
100
100
91.4085
82.9811
74.8728
67.2222
60.1445
53.7279
48.0311
43.0846
38.8929
35.439
32.6894
30.5994
29.1187
28.1948
27.7766
27.8155
28.2653
29.0812
30.217
31.6223
33.2387
34.9982
36.8229
38.6286
40.3341
41.8742
43.2096
44.3282
45.2387
45.9619
46.5242
46.9523
47.2708
47.5007
47.6588