# vtk DataFile Version 2.0
LBE two cylinders
ASCII
DATASET STRUCTURED_POINTS
DIMENSIONS 76 76 1
ASPECT_RATIO 1 1 1
ORIGIN 0 0 0
POINT_DATA 5776
SCALARS temp double 1
LOOKUP_TABLE default
100
100
100
100
100
100
100
100
100
100
100
100
100
100
100
100
100
100
100
100
100
100
100
100
100
100
-300
-300
-300
-300
-300
-300
-300
-300
-300
-300
-300
-300
-300
-300
100
100
100
100
100
100
100
100
100
100
100
100
100
100
100
100
100
100
100
100
100
100
100
100
100
100
-300
-300
-300
-300
-300
-300
-300
-300
-300
-300
100
99.1139
98.2449
97.4092
96.6219
95.8962
95.243
94.6713
94.1875
93.7965
93.5012
93.3035
93.2045
93.2045
93.3035
93.5012
93.7965
94.1875
94.6713
95.243
95.8962
96.6219
97.4092
98.2449
99.1139
100
-300
-300
-300
-300
-300
-300
-300
-300
-300
-300
-300
-300
-300
-300
100
99.1196
98.2559
97.4253
96.6424
95.9204
95.2702
94.7005
94.2178
93.8271
93.5313
93.3324
93.2315
93.2293
93.3258
93.5208
93.8133
94.2017
94.6829
95.2524
95.9035
96.6274
97.4131
98.2474
99.1151
100
-300
-300
-300
-300
-300
-300
-300
-300
-300
-300
100
98.2434
96.5207
94.864
93.3033
91.8645
90.5697
89.4363
88.4773
87.7021
87.1167
86.7249
86.5285
86.5285
86.7249
87.1167
87.7021
88.4773
89.4363
90.5697
91.8645
93.3033
94.864
96.5207
98.2434
100
-300
-300
-300
-300
-300
-300
-300
-300
-300
-300
-300
-300
-300
-300
100
98.2557
96.5447
94.899
93.348
91.9173
90.6289
89.4998
88.5434
87.7687
87.1822
86.7877
86.5874
86.5825
86.7734
87.1593
87.7387
88.5082
89.4617
90.5901
91.8804
93.3152
94.8725
96.526
98.2461
100
-300
-300
-300
-300
-300
-300
-300
-300
-300
-300
100
97.4033
94.8566
92.4076
90.1004
87.9735
86.0594
84.3839
82.9663
81.8203
80.9549
80.3757
80.0854
80.0854
80.3757
80.9549
81.8203
82.9663
84.3839
86.0594
87.9735
90.1004
92.4076
94.8566
97.4033
100
-300
-300
-300
-300
-300
-300
-300
-300
-300
-300
-300
-300
-300
-300
100
97.4243
94.8978
92.4675
90.1769
88.0639
86.1607
84.4928
83.0794
81.9344
81.0671
80.4833
80.1863
80.1779
80.4586
81.0278
81.8829
83.0189
84.4272
86.0941
88.0005
90.1206
92.4219
94.8657
97.4078
100
-300
-300
-300
-300
-300
-300
-300
-300
-300
-300
100
96.6068
93.2787
90.0785
87.0635
84.2842
81.783
79.5934
77.7409
76.2434
75.1126
74.3557
73.9764
73.9764
74.3557
75.1126
76.2434
77.7409
79.5934
81.783
84.2842
87.0635
90.0785
93.2787
96.6068
100
-300
-300
-300
-300
-300
-300
-300
-300
-300
-300
-300
-300
-300
-300
100
96.6399
93.3438
90.1732
87.1843
84.4271
81.943
79.7654
77.9197
76.4238
75.2898
74.5256
74.1356
74.1224
74.4866
75.2275
76.3421
77.8239
79.6615
81.8375
84.3266
87.0952
90.1009
93.293
96.6137
100
-300
-300
-300
-300
-300
-300
-300
-300
-300
-300
100
95.8647
91.809
87.909
84.2347
80.8476
77.7995
75.1311
72.8736
71.0486
69.6706
68.7481
68.2859
68.2859
68.7481
69.6706
71.0486
72.8736
75.1311
77.7995
80.8476
84.2347
87.909
91.809
95.8647
100
-300
-300
-300
-300
-300
-300
-300
-300
-300
-300
-300
-300
-300
-300
100
95.9151
91.9079
88.0528
84.4184
81.0648
78.0427
75.3927
73.1453
71.3228
69.94
69.0064
68.5279
68.5076
68.9468
69.8449
71.1982
72.9991
75.234
77.8817
80.9114
84.2823
87.9426
91.8304
95.8751
100
-300
-300
-300
-300
-300
-300
-300
-300
-300
-300
100
95.1857
90.464
85.9235
81.6459
77.7027
74.154
71.0475
68.4193
66.2946
64.6903
63.6164
63.0783
63.0783
63.6164
64.6903
66.2946
68.4193
71.0475
74.154
77.7027
81.6459
85.9235
90.464
95.1857
100
-300
-300
-300
-300
-300
-300
-300
-300
-300
-300
-300
-300
-300
-300
100
95.2605
90.6108
86.1371
81.9186
78.0251
74.5152
71.4359
68.8229
66.7018
65.0904
63.9999
63.4374
63.4071
63.9109
64.9484
66.5158
68.6046
71.1992
74.2749
77.7963
81.7157
85.9727
90.4951
95.2008
100
-300
-300
-300
-300
-300
-300
-300
-300
-300
-300
100
94.5752
89.2546
84.1383
79.3182
74.875
70.8763
67.3759
64.4143
62.0203
60.2126
59.0024
58.3961
58.3961
59.0024
60.2126
62.0203
64.4143
67.3759
70.8763
74.875
79.3182
84.1383
89.2546
94.5752
100
-300
-300
-300
-300
-300
-300
-300
-300
-300
-300
-300
-300
-300
-300
100
94.6841
89.4686
84.4497
79.7159
75.3452
71.4031
67.9424
65.003
62.6142
60.796
59.5616
58.9195
58.875
59.431
60.5876
62.3413
64.6829
67.5952
71.0508
75.0098
79.4184
84.2087
89.2991
94.5967
100
-300
-300
-300
-300
-300
-300
-300
-300
-300
-300
100
94.0358
88.1863
82.5614
77.2621
72.3771
67.9808
64.1324
60.8765
58.2445
56.257
54.9266
54.26
54.26
54.9266
56.257
58.2445
60.8765
64.1324
67.9808
72.3771
77.2621
82.5614
88.1863
94.0358
100
-300
-300
-300
-300
-300
-300
-300
-300
-300
-300
-300
-300
-300
-300
100
94.1922
88.4933
83.0081
77.8327
73.0519
68.7371
64.9457
61.7217
59.0971
57.0944
55.7289
55.0106
54.9463
55.5401
56.7933
58.7027
61.2591
64.4441
68.2282
72.5675
77.4032
82.6602
88.2487
94.0659
100
-300
-300
-300
-300
-300
-300
-300
-300
-300
-300
100
93.5677
87.259
81.1926
75.4774
70.209
65.4677
61.3173
57.8059
54.9673
52.8239
51.3891
50.6702
50.6702
51.3891
52.8239
54.9673
57.8059
61.3173
65.4677
70.209
75.4774
81.1926
87.259
93.5677
100
-300
-300
-300
-300
-300
-300
-300
-300
-300
-300
-300
-300
-300
-300
100
93.7886
87.6929
81.824
76.284
71.1631
66.5371
62.4675
59.0012
56.1731
54.0079
52.5229
51.7303
51.6387
52.2539
53.5787
55.6111
58.3421
61.7531
65.8124
70.4735
75.6726
81.3288
87.3447
93.609
100
-300
-300
-300
-300
-300
-300
-300
-300
-300
-300
100
93.1685
86.4683
80.0254
73.9554
68.3601
63.3246
58.9166
55.1873
52.1725
49.8961
48.3723
47.6087
47.6087
48.3723
49.8961
52.1725
55.1873
58.9166
63.3246
68.3601
73.9554
80.0254
86.4683
93.1685
100
-300
-300
-300
-300
-300
-300
-300
-300
-300
-300
-300
-300
-300
-300
100
93.4761
87.0725
80.9047
75.0791
69.6894
64.8149
60.5197
56.8534
53.8531
51.546
49.9515
49.0842
48.9554
49.5731
50.9424
53.063
55.927
59.5158
63.7968
68.7209
74.2206
80.2095
86.5837
93.2239
100
-300
-300
-300
-300
-300
-300
-300
-300
-300
-300
100
92.8339
85.8056
79.0472
72.68
66.8107
61.5286
56.9048
52.9929
49.8306
47.4427
45.8443
45.0434
45.0434
45.8443
47.4427
49.8306
52.9929
56.9048
61.5286
66.8107
72.68
79.0472
85.8056
92.8339
100
-300
-300
-300
-300
-300
-300
-300
-300
-300
-300
-300
-300
-300
-300
100
93.2561
86.6349
80.2544
74.2231
68.6366
63.5762
59.1077
55.2826
52.1399
49.7091
48.0125
47.0675
46.8885
47.4871
48.8713
51.0434
53.9973
57.7154
62.1646
67.2942
73.0334
79.2913
85.9579
92.9068
100
-300
-300
-300
-300
-300
-300
-300
-300
-300
-300
100
92.5584
85.26
78.2417
71.6298
65.5349
60.0498
55.2483
51.186
47.9021
45.4225
43.7627
42.931
42.931
43.7627
45.4225
47.9021
51.186
55.2483
60.0498
65.5349
71.6298
78.2417
85.26
92.5584
100
-300
-300
-300
-300
-300
-300
-300
-300
-300
-300
-300
-300
-300
-300
100
93.1296
86.3822
79.8757
73.7189
68.0078
62.8237
58.2333
54.2889
51.0314
48.4926
46.6978
45.6683
45.4228
45.9773
47.3438
49.5285
52.5281
56.3266
60.8915
66.1709
72.0916
78.5587
85.4564
92.6521
100
-300
-300
-300
-300
-300
-300
-300
-300
-300
-300
100
92.3355
84.8184
77.5899
70.78
64.5025
58.8531
53.9078
49.7238
46.3417
43.7878
42.0782
41.2216
41.2216
42.0782
43.7878
46.3417
49.7238
53.9078
58.8531
64.5025
70.78
77.5899
84.8184
92.3355
100
-300
-300
-300
-300
-300
-300
-300
-300
-300
-300
-300
-300
-300
-300
100
93.0975
86.3158
79.7708
73.5693
67.8056
62.5597
57.8975
53.8717
50.5244
47.8897
45.9968
44.872
44.5392
45.0204
46.3334
48.4892
51.4887
55.3184
59.9474
65.3233
71.3711
77.9922
85.0659
92.4528
100
-300
-300
-300
-300
-300
-300
-300
-300
-300
-300
100
92.1582
84.4673
77.0716
70.1041
63.6815
57.9014
52.8418
48.5611
45.1007
42.4878
40.7387
39.8623
39.8623
40.7387
42.4878
45.1007
48.5611
52.8418
57.9014
63.6815
70.1041
77.0716
84.4673
92.1582
100
-300
-300
-300
-300
-300
-300
-300
-300
-300
-300
-300
-300
-300
-300
100
93.1607
86.4376
79.9424
73.7776
68.0337
62.7876
58.1031
54.032
50.6171
47.8951
45.8998
44.6634
44.2174
44.5914
45.8106
47.8928
50.8443
54.6557
59.2981
64.7197
70.8442
77.5697
84.7706
92.301
100
-300
-300
-300
-300
-300
-300
-300
-300
-300
-300
100
92.0197
84.1928
76.6665
69.5759
63.0398
57.1577
52.0086
47.6524
44.1309
41.4718
39.6918
38.8
38.8
39.6918
41.4718
44.1309
47.6524
52.0086
57.1576
63.0398
69.5759
76.6665
84.1928
92.0197
100
-300
-300
-300
-300
-300
-300
-300
-300
-300
-300
-300
-300
-300
-300
100
93.3204
86.7503
80.3943
74.3487
68.698
63.514
58.8565
54.7749
51.312
48.5072
46.3996
45.0295
44.4379
44.6646
45.7448
47.7048
50.558
54.3003
58.9061
64.3251
70.48
77.2661
84.5529
92.1873
100
-300
-300
-300
-300
-300
-300
-300
-300
-300
-300
100
91.9132
83.982
76.3553
69.1702
62.5469
56.5863
51.3686
46.9543
43.3859
40.6914
38.8877
37.9839
37.9839
38.8877
40.6914
43.3859
46.9543
51.3686
56.5863
62.5469
69.1702
76.3553
83.982
91.9132
100
-300
-300
-300
-300
-300
-300
-300
-300
-300
-300
-300
-300
-300
-300
100
93.5782
87.2567
81.1312
75.2892
69.8069
64.7488
60.1682
56.1105
52.6171
49.7297
47.494
45.9606
45.1833
45.2155
46.1049
47.8892
50.5905
54.2115
58.7311
64.1011
70.2443
77.0535
84.3928
92.1015
100
-300
-300
-300
-300
-300
-300
-300
-300
-300
-300
100
91.8329
83.8228
76.1203
68.8638
62.1747
56.1549
50.8854
46.4272
42.8233
40.1021
38.2805
37.3677
37.3677
38.2805
40.1021
42.8233
46.4272
50.8854
56.1549
62.1747
68.8638
76.1203
83.8228
91.8329
100
-300
-300
-300
-300
-300
-300
-300
-300
-300
-300
-300
-300
-300
-300
100
93.9354
87.9599
82.1582
76.6066
71.3709
66.5053
62.0541
58.0555
54.5475
51.5731
49.1861
47.4506
46.4379
46.2192
46.8589
48.4082
50.9003
54.3457
58.7291
64.0056
70.0989
76.8998
84.2672
92.0314
100
-300
-300
-300
-300
-300
-300
-300
-300
-300
-300
100
91.7732
83.7046
75.9459
68.6364
61.8985
55.8347
50.5267
46.036
42.4058
39.6647
37.8298
36.9104
36.9104
37.8298
39.6647
42.4058
46.036
50.5267
55.8347
61.8984
68.6364
75.9459
83.7046
91.7732
100
-300
-300
-300
-300
-300
-300
-300
-300
-300
-300
-300
-300
-300
-300
100
94.3929
88.8621
83.4793
78.3081
73.4011
68.7993
64.5344
60.6335
57.1266
54.0562
51.4852
49.4967
48.1864
47.6497
47.9719
49.2208
51.4419
54.6552
58.8517
63.9913
69.9999
76.7675
84.1483
91.9618
100
-300
-300
-300
-300
-300
-300
-300
-300
-300
-300
100
91.7297
83.6184
75.8186
68.4705
61.6969
55.6011
50.265
45.7506
42.1012
39.3456
37.501
36.5767
36.5767
37.501
39.3456
42.1012
45.7505
50.265
55.601
61.6969
68.4704
75.8186
83.6184
91.7297
100
-300
-300
-300
-300
-300
-300
-300
-300
-300
-300
-300
-300
-300
-300
100
94.9504
89.9632
85.0961
80.3982
75.907
71.6475
67.634
63.8759
60.3886
57.2083
54.4076
52.0982
50.4116
49.4763
49.4037
50.2803
52.1648
55.0868
59.0446
64.0041
69.8955
76.6108
84.0006
91.8735
100
-300
-300
-300
-300
-300
-300
-300
-300
-300
-300
100
91.6985
83.5566
75.7274
68.3514
61.5523
55.4335
50.0773
45.5458
41.8827
39.1167
37.2651
36.3374
36.3374
37.2651
39.1166
41.8826
45.5458
50.0773
55.4334
61.5523
68.3514
75.7273
83.5566
91.6985
100
-300
-300
-300
-300
-300
-300
-300
-300
-300
-300
-300
-300
-300
-300
100
95.6054
91.2591
87.0043
82.8752
78.8931
75.0642
71.3803
67.8243
64.3834
61.0746
57.9784
55.2539
53.0894
51.659
51.1047
51.532
53.0115
55.581
59.2465
63.9811
69.7231
76.371
83.7768
91.739
100
-300
-300
-300
-300
-300
-300
-300
-300
-300
-300
100
91.6764
83.5129
75.663
68.2675
61.4503
55.3153
49.9449
45.4014
41.7285
38.9552
37.0987
36.1685
36.1685
37.0987
38.9552
41.7285
45.4013
49.9448
55.3152
61.4503
68.2674
75.6629
83.5129
91.6764
100
-300
-300
-300
-300
-300
-300
-300
-300
-300
-300
-300
-300
-300
-300
100
96.3525
92.7398
89.1916
85.7278
82.354
79.0568
75.8014
72.5323
69.1862
65.7294
62.2346
58.957
56.1809
54.1414
53.0112
52.9103
53.9161
56.0715
59.3887
63.85
69.4063
75.9711
83.4091
91.5164
100
-300
-300
-300
-300
-300
-300
-300
-300
-300
-300
100
91.6612
83.4827
75.6183
68.2092
61.3796
55.2333
49.8531
45.3012
41.6216
38.8432
36.9834
36.0514
36.0514
36.9833
38.8431
41.6215
45.3011
49.853
55.2332
61.3795
68.2091
75.6182
83.4826
91.6611
100
-300
-300
-300
-300
-300
-300
-300
-300
-300
-300
-300
-300
-300
-300
100
97.1822
94.3872
91.6333
88.9287
86.2665
83.6167
80.9182
78.0677
74.9172
71.3081
67.2297
63.1818
59.6172
56.8395
55.0395
54.3367
54.8054
56.4871
59.3977
63.5294
68.8518
75.3066
82.7937
91.1336
100
-300
-300
-300
-300
-300
-300
-300
-300
-300
-300
100
91.6508
83.4621
75.5878
68.1695
61.3313
55.1774
49.7904
45.2329
41.5487
38.7668
36.9046
35.9715
35.9715
36.9046
38.7667
41.5486
45.2327
49.7902
55.1772
61.3311
68.1694
75.5877
83.462
91.6507
100
-300
-300
-300
-300
-300
-300
-300
-300
-300
-300
-300
-300
-300
-300
100
98.0801
96.1735
94.2895
92.4292
90.5796
88.704
86.7271
84.5047
81.7745
78.1006
73.0279
67.847
63.2706
59.628
57.0811
55.7207
55.6018
56.7568
59.2004
62.9343
67.9505
74.2352
81.7623
90.4501
100
-300
-300
-300
-300
-300
-300
-300
-300
-300
-300
100
91.6438
83.4482
75.5674
68.1429
61.299
55.1398
49.7484
45.187
41.4998
38.7155
36.8518
35.9179
35.9178
36.8517
38.7153
41.4995
45.1867
49.7481
55.1395
61.2986
68.1426
75.5672
83.448
91.6437
100
-300
-300
-300
-300
-300
-300
-300
-300
-300
-300
-300
-300
-300
-300
100
99.0271
98.0602
97.1029
96.1539
95.203
94.2239
93.1579
91.8752
90.0615
86.8609
79.6224
72.7181
66.9095
62.3268
59.004
56.9649
56.2309
56.8179
58.7351
61.9884
66.5889
72.5725
80.0324
89.1465
100
-300
-300
-300
-300
-300
-300
-300
-300
-300
-300
100
91.6392
83.4391
75.5539
68.1253
61.2776
55.1151
49.7206
45.1567
41.4674
38.6816
36.8168
35.8824
35.8823
36.8166
38.6813
41.467
45.1562
49.7201
55.1145
61.277
68.1248
75.5535
83.4388
91.639
100
-300
-300
-300
-300
-300
-300
-300
-300
-300
-300
-300
-300
-300
-300
100
100
100
100
100
100
100
100
100
100
100
86.4025
77.1828
70.1542
64.7094
60.6679
57.979
56.6325
56.6284
57.967
60.6485
64.6835
70.1237
77.1512
86.3772
100
100
100
100
100
100
100
100
100
100
100
100
91.6362
83.4331
75.5452
68.1139
61.2637
55.099
49.7026
45.137
41.4464
38.6595
36.794
35.8592
35.8591
36.7937
38.659
41.4456
45.1361
49.7016
55.0979
61.2627
68.113
75.5444
83.4326
91.6359
100
-300
-300
-300
-300
-300
-300
-300
-300
-300
-300
-300
-300
-300
-300
-300
-300
-300
-300
-300
-300
-300
-300
-300
-300
100
89.1499
80.0332
72.5667
66.5742
61.9639
58.7007
56.7738
56.1779
56.9038
58.9361
62.2538
66.8336
72.6425
79.5519
86.8006
90.0065
91.8246
93.1118
94.1829
95.1677
96.1249
97.0806
98.0451
99.0195
100
100
91.6342
83.4293
75.5396
68.1065
61.2548
55.0886
49.691
45.1243
41.4328
38.6453
36.7793
35.8441
35.8439
36.7787
38.6443
41.4315
45.1228
49.6893
55.0869
61.2532
68.1051
75.5383
83.4285
91.6338
100
-300
-300
-300
-300
-300
-300
-300
-300
-300
-300
-300
-300
-300
-300
-300
-300
-300
-300
-300
-300
-300
-300
-300
-300
100
90.4384
81.7372
74.1949
67.8946
62.8628
59.1143
56.6572
55.4905
55.5994
56.952
59.4935
63.1335
67.7104
72.8955
77.9753
81.6568
84.3953
86.6272
88.6151
90.5029
92.3662
94.2412
96.1407
98.0636
100
100
91.633
83.4269
75.536
68.1019
61.2491
55.082
49.6836
45.1162
41.424
38.636
36.7696
35.8343
35.8339
36.7686
38.6344
41.4219
45.1137
49.6808
55.0792
61.2464
68.0995
75.534
83.4255
91.6323
100
-300
-300
-300
-300
-300
-300
-300
-300
-300
-300
-300
-300
-300
-300
-300
-300
-300
-300
-300
-300
-300
-300
-300
-300
100
91.1073
82.7408
75.2272
68.7467
63.4001
59.2461
56.3158
54.6172
54.1347
54.827
56.62
59.3944
62.9596
67.0119
71.0983
74.7182
77.8819
80.7483
83.4653
86.1359
88.8213
91.5509
94.3314
97.154
100
100
91.6323
83.4254
75.5338
68.099
61.2455
55.0778
49.6788
45.1109
41.4183
38.6299
36.7631
35.8275
35.8269
36.7615
38.6273
41.4149
45.1069
49.6743
55.0732
61.2411
68.095
75.5305
83.4231
91.6311
100
-300
-300
-300
-300
-300
-300
-300
-300
-300
-300
-300
-300
-300
-300
-300
-300
-300
-300
-300
-300
-300
-300
-300
-300
100
91.4723
83.3214
75.8413
69.2363
63.6429
59.148
55.8014
53.6211
52.5953
52.6812
53.8015
55.8364
58.6132
61.8967
65.4025
68.8749
72.2412
75.5349
78.8192
82.1491
85.5593
89.0623
92.6523
96.3083
100
100
91.6318
83.4245
75.5323
68.0971
61.2432
55.075
49.6756
45.1073
41.4143
38.6255
36.7583
35.8223
35.8215
36.7557
38.6213
41.4088
45.1008
49.6684
55.0676
61.236
68.0906
75.527
83.4207
91.6298
100
-300
-300
-300
-300
-300
-300
-300
-300
-300
-300
-300
-300
-300
-300
-300
-300
-300
-300
-300
-300
-300
-300
-300
-300
100
91.671
83.6421
76.1721
69.4637
63.666
58.8813
55.1723
52.5662
51.0574
50.6082
51.1482
52.5719
54.7374
57.4703
60.5825
63.9143
67.3854
70.9783
74.7056
78.584
82.6208
86.8092
91.1269
95.5387
100
100
91.6315
83.4238
75.5314
68.0958
61.2416
55.073
49.6732
45.1045
41.4111
38.6218
36.7542
35.8177
35.8163
36.7501
38.6152
41.4023
45.0941
49.6618
55.0612
61.2302
68.0855
75.5229
83.4179
91.6284
100
-300
-300
-300
-300
-300
-300
-300
-300
-300
-300
-300
-300
-300
-300
-300
-300
-300
-300
-300
-300
-300
-300
-300
-300
100
91.7725
83.8006
76.3158
69.5112
63.538
58.5052
54.4837
51.5083
49.581
48.6727
48.7246
49.6502
51.3383
53.6601
56.4839
59.6981
63.2296
67.042
71.1193
75.4516
80.0234
84.8087
89.7685
94.8521
100
100
91.6312
83.4234
75.5306
68.0948
61.2403
55.0714
49.6711
45.102
41.408
38.6181
36.7498
35.8125
35.8103
36.7434
38.6078
41.3943
45.0857
49.6532
55.0528
61.2223
68.0786
75.5174
83.4139
91.6263
100
-300
-300
-300
-300
-300
-300
-300
-300
-300
-300
-300
-300
-300
-300
-300
-300
-300
-300
-300
-300
-300
-300
-300
-300
100
91.8151
83.8579
76.3394
69.4425
63.3155
58.0701
53.7817
50.4915
48.209
46.9146
46.5628
47.0858
48.3984
50.4047
53.0093
56.1285
59.6993
63.6787
68.0359
72.7429
77.7665
83.064
88.5808
94.2509
100
100
91.631
83.4229
75.53
68.0938
61.239
55.0697
49.669
45.0992
41.4044
38.6137
36.7443
35.806
35.8026
36.7344
38.5977
41.3832
45.0739
49.6411
55.0409
61.2111
68.0687
75.5093
83.4083
91.6234
100
-300
-300
-300
-300
-300
-300
-300
-300
-300
-300
-300
-300
-300
-300
-300
-300
-300
-300
-300
-300
-300
-300
-300
-300
100
91.822
83.8529
76.289
69.304
63.0422
57.6153
53.1015
49.547
46.968
45.3543
44.6729
44.8725
45.8886
47.6497
50.0845
53.1284
56.7274
60.8376
65.42
70.4352
75.8367
81.5678
87.56
93.7335
100
100
91.6308
83.4225
75.5293
68.0928
61.2375
55.0677
49.6663
45.0957
41.3999
38.6078
36.7371
35.797
35.7919
36.7219
38.5835
41.3675
45.0571
49.6237
55.0236
61.1947
68.0542
75.4975
83.3999
91.6191
100
-300
-300
-300
-300
-300
-300
-300
-300
-300
-300
-300
-300
-300
-300
-300
-300
-300
-300
-300
-300
-300
-300
-300
-300
100
91.8074
83.8108
76.1958
69.1284
62.749
57.1684
52.4666
48.6933
45.8708
43.9969
43.0496
42.9912
43.7736
45.3433
47.6461
50.631
54.2519
58.4658
63.2302
68.4976
74.2118
80.3052
86.6972
93.2958
100
100
91.6306
83.422
75.5284
68.0915
61.2357
55.0651
49.6628
45.0909
41.3937
38.5998
36.727
35.7845
35.7768
36.7042
38.5631
41.3449
45.0327
49.5983
54.9983
61.1707
68.0328
75.4801
83.3876
91.6127
100
-300
-300
-300
-300
-300
-300
-300
-300
-300
-300
-300
-300
-300
-300
-300
-300
-300
-300
-300
-300
-300
-300
-300
-300
100
91.7804
83.7477
76.0798
68.9369
62.4561
56.7468
51.8899
47.9383
44.9187
42.836
41.6769
41.4147
42.014
43.4347
45.6352
48.5747
52.2135
56.5106
61.4215
66.8939
72.8643
79.2563
85.9795
92.9313
100
100
91.6303
83.4213
75.5273
68.0899
61.2333
55.0617
49.658
45.0845
41.3851
38.5888
36.7129
35.7671
35.7556
36.6791
38.5342
41.3125
44.9976
49.5617
54.9616
61.1358
68.0016
75.4546
83.3695
91.6033
100
-300
-300
-300
-300
-300
-300
-300
-300
-300
-300
-300
-300
-300
-300
-300
-300
-300
-300
-300
-300
-300
-300
-300
-300
100
91.746
83.6728
75.9527
68.7417
62.1741
56.3583
51.3756
47.2808
44.1046
41.8569
40.5317
40.1106
40.5681
41.8739
43.9961
46.9015
50.5554
54.9194
59.9479
65.5855
71.7633
78.3982
85.3917
92.6327
100
100
91.6299
83.4205
75.5259
68.0876
61.23
55.0571
49.6516
45.0758
41.3735
38.5736
36.6935
35.7428
35.726
36.6439
38.4934
41.2667
44.9477
49.5093
54.909
61.0855
67.9565
75.4175
83.3431
91.5896
100
-300
-300
-300
-300
-300
-300
-300
-300
-300
-300
-300
-300
-300
-300
-300
-300
-300
-300
-300
-300
-300
-300
-300
-300
100
91.7069
83.5906
75.8198
68.5477
61.9063
56.0033
50.92
46.7125
43.4142
41.039
39.5861
39.0436
39.3931
40.6121
42.6755
45.5562
49.2236
53.6413
58.7637
64.5331
70.877
77.7068
84.9178
92.3918
100
100
91.6293
83.4193
75.524
68.0847
61.2257
55.0509
49.643
45.064
41.3578
38.5529
36.667
35.7096
35.6853
36.5952
38.4367
41.2026
44.8776
49.4354
54.8342
61.0136
67.8917
75.3641
83.305
91.5697
100
-300
-300
-300
-300
-300
-300
-300
-300
-300
-300
-300
-300
-300
-300
-300
-300
-300
-300
-300
-300
-300
-300
-300
-300
100
91.6634
83.5015
75.6811
68.3535
61.6496
55.6759
50.5137
46.2198
42.829
40.3581
38.8098
38.1772
38.447
39.6021
41.623
44.4871
48.167
52.628
57.8249
63.6986
70.1739
77.158
84.5415
92.2005
100
100
91.6286
83.4178
75.5215
68.0809
61.2201
55.0428
49.6317
45.0484
41.3368
38.5253
36.6314
35.6647
35.63
36.5288
38.359
41.1143
44.7803
49.3321
54.7291
60.9119
67.7996
75.2879
83.2504
91.5412
100
-300
-300
-300
-300
-300
-300
-300
-300
-300
-300
-300
-300
-300
-300
-300
-300
-300
-300
-300
-300
-300
-300
-300
-300
100
91.6141
83.4027
75.532
68.153
61.3954
55.3651
50.1426
45.7848
42.3271
39.7876
38.1717
37.4752
37.6889
38.7997
40.7918
43.6462
47.3382
51.8346
57.0905
63.046
69.6239
76.7287
84.2472
92.0508
100
100
91.6278
83.4159
75.5183
68.0759
61.2128
55.0323
49.6169
45.0282
41.3094
38.4891
36.5845
35.6052
35.5563
36.4397
38.2541
40.9941
44.6471
49.1896
54.583
60.7697
67.6699
75.1799
83.1727
91.5005
100
-300
-300
-300
-300
-300
-300
-300
-300
-300
-300
-300
-300
-300
-300
-300
-300
-300
-300
-300
-300
-300
-300
-300
-300
100
91.5559
83.2881
75.364
67.935
61.1305
55.0553
49.7889
45.387
41.8847
39.3005
37.6406
36.9031
37.0809
38.1638
40.1391
42.9902
46.6944
51.2201
56.5228
62.5422
69.1997
76.3977
84.0202
91.9354
100
100
91.6267
83.4136
75.5143
68.0697
61.2036
55.0191
49.5982
45.0022
41.2742
38.4423
36.5236
35.5276
35.4596
36.3219
38.1144
40.8331
44.4672
48.9955
54.3823
60.5725
67.4885
75.0277
83.0625
91.4426
100
-300
-300
-300
-300
-300
-300
-300
-300
-300
-300
-300
-300
-300
-300
-300
-300
-300
-300
-300
-300
-300
-300
-300
-300
100
91.4838
83.1482
75.1639
67.6838
60.837
54.7271
49.4313
45.0035
41.477
38.8694
37.1869
36.4283
36.5879
37.6576
39.6266
42.4802
46.1977
50.7485
56.0887
62.1578
68.8765
76.1458
83.8475
91.8476
100
100
91.6253
83.4107
75.5094
68.0621
61.1922
55.0025
49.5747
44.9696
41.2298
38.383
36.4459
35.428
35.3347
36.1689
37.9315
40.6204
44.2272
48.7343
54.1093
60.3015
67.2366
74.8144
82.9069
91.3603
100
-300
-300
-300
-300
-300
-300
-300
-300
-300
-300
-300
-300
-300
-300
-300
-300
-300
-300
-300
-300
-300
-300
-300
-300
100
91.3904
82.9693
74.9133
67.3779
60.4921
54.3568
49.0461
44.61
41.0789
38.4681
36.7827
36.0213
36.179
37.2486
39.2208
42.0829
45.8152
50.3884
55.7592
61.8673
68.633
75.9563
83.7179
91.7817
100
100
91.6237
83.4072
75.5035
68.0529
61.1783
54.9824
49.546
44.9295
41.1749
38.3092
36.3487
35.3027
35.1764
35.9734
37.6959
40.3437
43.912
48.387
53.7421
59.9322
66.8889
74.5162
82.6869
91.2431
100
-300
-300
-300
-300
-300
-300
-300
-300
-300
-300
-300
-300
-300
-300
-300
-300
-300
-300
-300
-300
-300
-300
-300
-300
100
91.2647
82.7315
74.5866
66.9892
60.0671
53.9168
48.6066
44.1809
40.6652
38.0715
36.4025
35.6559
35.8267
36.9086
38.8934
41.7696
45.519
50.1133
55.51
61.6492
68.4511
75.8152
83.6215
91.7329
100
100
91.6219
83.4031
75.4965
68.042
61.162
54.9584
49.5116
44.8812
41.1083
38.2192
36.2295
35.1478
34.9793
35.728
37.3974
39.9897
43.5038
47.9315
53.2533
59.4328
66.411
74.0995
82.3751
91.0753
100
-300
-300
-300
-300
-300
-300
-300
-300
-300
-300
-300
-300
-300
-300
-300
-300
-300
-300
-300
-300
-300
-300
-300
-300
100
91.0904
82.4064
74.1489
66.481
59.5268
53.3747
48.0837
43.6898
40.2117
37.6564
36.0236
35.3093
35.5082
36.6143
38.6207
41.5169
45.2862
49.9013
55.3209
61.4855
68.3157
75.7109
83.5505
91.6969
100
100
91.6198
83.3986
75.4887
68.0296
61.1431
54.9305
49.4713
44.8242
41.0293
38.1118
36.0862
34.9603
34.7389
35.4261
37.0264
39.5446
42.9838
47.3425
52.6104
58.7633
65.7565
73.5163
81.9296
90.8315
100
-300
-300
-300
-300
-300
-300
-300
-300
-300
-300
-300
-300
-300
-300
-300
-300
-300
-300
-300
-300
-300
-300
-300
-300
100
90.842
81.9511
73.5503
65.8046
58.8277
52.6934
47.4464
43.1105
39.6955
37.2022
35.6266
34.9626
35.2045
36.3468
38.3836
41.3059
45.0984
49.7352
55.1759
61.3622
68.2149
75.6338
83.4984
91.6706
100
100
91.6175
83.3936
75.48
68.0157
61.1219
54.8989
49.4253
44.7587
40.9378
37.9864
35.9177
34.7382
34.4517
35.0619
36.5742
38.9955
42.3332
46.5931
51.7761
57.874
64.8635
72.6966
81.284
90.4692
100
-300
-300
-300
-300
-300
-300
-300
-300
-300
-300
-300
-300
-300
-300
-300
-300
-300
-300
-300
-300
-300
-300
-300
-300
100
90.4763
81.2986
72.7196
64.896
57.9174
51.8319
46.6628
42.4181
39.0966
36.6919
35.1959
34.6011
34.9012
36.0917
38.1678
41.1223
44.9416
49.6014
55.0627
61.2681
68.1394
75.5769
83.4602
91.6514
100
100
91.6152
83.3885
75.471
68.0011
61.099
54.8643
49.3744
44.6853
40.8344
37.8436
35.7243
34.4811
34.1163
34.6326
36.0352
38.3325
41.5355
45.6572
50.7103
56.706
63.6505
71.5375
80.3291
89.9093
100
-300
-300
-300
-300
-300
-300
-300
-300
-300
-300
-300
-300
-300
-300
-300
-300
-300
-300
-300
-300
-300
-300
-300
-300
100
89.9141
80.3388
71.5528
63.6721
56.7348
50.7472
45.7032
41.5916
38.3991
36.1127
34.7208
34.2145
34.5883
35.8386
37.9629
40.9557
44.8055
49.4901
54.972
61.1951
68.0824
75.5347
83.4323
91.6375
100
100
91.6131
83.3836
75.4621
67.9862
61.0754
54.8279
49.3198
44.6057
40.7209
37.6853
35.5079
34.1908
33.7341
34.1385
35.408
37.5508
40.5802
44.5141
49.3761
55.1967
62.0167
69.8901
78.8768
88.9897
100
-300
-300
-300
-300
-300
-300
-300
-300
-300
-300
-300
-300
-300
-300
-300
-300
-300
-300
-300
-300
-300
-300
-300
-300
100
88.9928
78.8831
69.9001
62.0308
55.2155
49.4002
44.5441
40.6166
37.5941
35.4582
34.1957
33.7978
34.2602
35.5819
37.7626
40.7995
44.6836
49.3948
54.8976
61.1376
68.0389
75.5034
83.412
91.6275
100
100
91.6113
83.3795
75.4543
67.9725
61.0525
54.7915
49.264
44.5226
40.6005
37.5152
35.2726
33.872
33.3103
33.585
34.6974
36.6539
39.4669
43.1559
47.7499
53.2923
59.853
67.5515
76.5981
87.3301
100
-300
-300
-300
-300
-300
-300
-300
-300
-300
-300
-300
-300
-300
-300
-300
-300
-300
-300
-300
-300
-300
-300
-300
-300
100
87.3321
76.6023
67.558
59.8621
53.3044
47.7653
43.1751
39.4902
36.6816
34.7295
33.6215
33.3509
33.9163
35.3198
37.5644
40.6506
44.5722
49.3118
54.836
61.0923
68.0061
75.4807
83.3976
91.6206
100
100
91.6105
83.3771
75.4489
67.9617
61.0327
54.7579
49.2101
44.4398
40.4779
37.3387
35.0252
33.5327
32.8542
32.983
33.9161
35.6556
38.2099
41.5947
45.8356
50.974
57.0821
64.3013
72.9527
83.906
100
100
100
100
100
100
100
100
100
100
100
100
100
100
100
100
100
100
100
100
100
100
100
100
100
100
83.9073
72.9553
64.3054
57.0879
50.9817
45.8453
41.6068
38.2246
35.6731
33.9363
33.006
32.8797
33.5606
35.0549
37.3697
40.5093
44.471
49.2401
54.7859
61.0577
67.9828
75.4655
83.3885
91.6163
100
100
91.6112
83.3776
75.4477
67.9561
61.0191
54.731
49.1628
44.3629
40.3595
37.1639
34.775
33.1843
32.3798
32.3497
33.0851
34.5819
36.8411
39.8695
43.6802
48.2943
53.7444
60.0797
67.3594
75.5538
83.9059
87.3298
88.9892
89.9086
90.4679
90.8295
91.072
91.238
91.3523
91.4303
91.4819
91.5132
91.528
91.528
91.5132
91.4819
91.4303
91.3523
91.238
91.072
90.8295
90.4679
89.9086
88.9893
87.3299
83.9062
75.5547
67.3611
60.0823
53.748
48.299
43.6863
39.8771
36.8502
34.5927
33.0977
32.3639
32.3956
33.2016
34.7934
37.183
40.379
44.3823
49.1814
54.7483
61.0346
67.9692
75.458
83.3847
91.6148
100
100
91.6141
83.3828
75.4533
67.9593
61.0159
54.7159
49.1283
44.2994
40.2543
37.001
34.5347
32.8419
31.9055
31.7079
32.2333
33.4697
35.4089
38.0456
41.3758
45.3937
50.0848
55.4107
61.2654
67.3593
72.9524
76.5976
78.8759
80.3276
81.2815
81.9256
82.3689
82.6771
82.8915
83.0389
83.1368
83.1964
83.2247
83.2247
83.1964
83.1368
83.0389
82.8915
82.6771
82.3689
81.9256
81.2816
80.3276
78.8759
76.5977
72.9527
67.3599
61.2665
55.4123
50.087
45.3966
41.3796
38.0502
35.4145
33.4763
32.2409
31.7165
31.9152
32.8524
34.5459
37.0127
40.2662
44.3112
49.1397
54.7264
61.0254
67.9673
75.4595
83.3871
91.6163
100
100
91.6206
83.3948
75.469
67.9758
61.0289
54.7195
49.1148
44.2587
40.1733
36.8633
34.3196
32.5241
31.4541
31.0856
31.3958
32.3643
33.9729
36.204
39.0371
42.4435
46.3757
50.7496
55.4106
60.0795
64.3008
67.5508
69.8888
71.5354
72.6931
73.5107
74.0906
74.5021
74.7926
74.9943
75.1291
75.2116
75.2508
75.2508
75.2116
75.1291
74.9943
74.7926
74.5021
74.0906
73.5107
72.6932
71.5355
69.8888
67.5509
64.3011
60.0799
55.4113
50.7506
46.3771
42.4453
39.0394
36.2067
33.9762
32.3682
31.4004
31.0908
31.4599
32.5304
34.3263
36.8703
40.1805
44.2657
49.1217
54.7258
61.0345
67.9806
75.4727
83.3974
91.6219
100
100
91.632
83.4167
75.4994
68.0115
61.0654
54.7508
49.1328
44.2529
40.1305
36.7668
34.1485
32.2529
31.0517
30.5148
30.6121
31.3154
32.5971
34.429
36.778
39.6001
42.8316
46.3757
50.0846
53.7441
57.0816
59.8521
62.0151
63.6479
64.8592
65.7496
66.3999
66.8716
67.2098
67.4473
67.6074
67.706
67.7529
67.7529
67.706
67.6074
67.4473
67.2098
66.8716
66.3999
65.7496
64.8592
63.6479
62.0152
59.8522
57.0818
53.7443
50.085
46.3763
42.8324
39.6011
36.7793
34.4307
32.5991
31.3177
30.6148
30.5178
31.0552
32.2566
34.1525
36.7709
40.1348
44.2571
49.1369
54.7545
61.0688
68.0143
75.5016
83.4182
91.6328
100
100
91.6505
83.4525
75.5503
68.0743
61.1352
54.8212
49.1955
44.2973
40.1432
36.7309
34.0436
32.0538
30.728
30.0303
29.9242
30.3741
31.3449
32.8001
34.698
36.9874
39.6
42.4434
45.3935
48.2939
50.9734
53.2912
55.1949
56.703
57.8691
58.7555
59.4203
59.9125
60.2711
60.526
60.6993
60.8067
60.858
60.858
60.8067
60.6993
60.526
60.2711
59.9125
59.4203
58.7555
57.8691
56.703
55.195
53.2913
50.9735
48.2941
45.3937
42.4438
39.6005
36.988
34.6988
32.801
31.3461
30.3755
29.9258
30.0321
30.73
32.0559
34.0459
36.7334
40.1456
44.2997
49.1979
54.8234
61.1372
68.0759
75.5516
83.4534
91.6509
100
100
91.6784
83.5072
75.6294
68.1739
61.2504
54.945
49.3194
44.4104
40.232
36.7789
34.0306
31.9556
30.5156
29.6694
29.375
29.5907
30.2755
31.387
32.8791
34.698
36.7779
39.037
41.3756
43.6798
45.8349
47.7487
49.3742
50.7071
51.7708
52.602
53.24
53.7212
54.077
54.3329
54.5085
54.618
54.6704
54.6704
54.618
54.5085
54.3329
54.077
53.7212
53.24
52.602
51.7708
50.7071
49.3742
47.7488
45.835
43.6799
41.3758
39.0372
36.7782
34.6984
32.8796
31.3876
30.2762
29.5915
29.3759
29.6704
30.5167
31.9568
34.032
36.7803
40.2334
44.4118
49.3208
54.9463
61.2515
68.1749
75.6301
83.5077
91.6787
100
100
91.719
83.5871
75.7458
68.3228
61.426
55.1401
49.5248
44.6149
40.422
36.9382
34.1395
31.991
30.4502
29.4716
29.0083
29.0141
29.4435
30.2505
31.387
32.8
34.429
36.2038
38.0454
39.8691
41.594
43.1547
44.5122
45.6539
46.5878
47.334
47.9179
48.3658
48.7016