# vtk DataFile Version 2.0
LBE two cylinders
ASCII
DATASET STRUCTURED_POINTS
DIMENSIONS 76 76 1
ASPECT_RATIO 1 1 1
ORIGIN 0 0 0
POINT_DATA 5776
SCALARS temp double 1
LOOKUP_TABLE default
100
100
100
100
100
100
100
100
100
100
100
100
100
100
100
100
100
100
100
100
100
100
100
100
100
100
-300
-300
-300
-300
-300
-300
-300
-300
-300
-300
-300
-300
-300
-300
100
100
100
100
100
100
100
100
100
100
100
100
100
100
100
100
100
100
100
100
100
100
100
100
100
100
-300
-300
-300
-300
-300
-300
-300
-300
-300
-300
100
99.0731
98.1646
97.2919
96.471
95.7158
95.0376
94.4455
93.9457
93.5427
93.2389
93.036
92.9344
92.9344
93.036
93.2389
93.5427
93.9457
94.4455
95.0376
95.7158
96.471
97.2919
98.1646
99.0731
100
-300
-300
-300
-300
-300
-300
-300
-300
-300
-300
-300
-300
-300
-300
100
99.0779
98.1739
97.3054
96.4882
95.736
95.0603
94.4697
93.9709
93.568
93.2637
93.0596
92.9565
92.9545
93.054
93.2547
93.5561
93.957
94.4547
95.045
95.7214
96.4752
97.2949
98.1665
99.0741
100
-300
-300
-300
-300
-300
-300
-300
-300
-300
-300
100
98.1633
96.3629
94.6335
93.0068
91.5102
90.1664
88.993
88.0026
87.2039
86.6021
86.1999
85.9985
85.9985
86.1999
86.6021
87.2039
88.0026
88.993
90.1664
91.5102
93.0068
94.6335
96.3629
98.1633
100
-300
-300
-300
-300
-300
-300
-300
-300
-300
-300
-300
-300
-300
-300
100
98.1737
96.3832
94.6631
93.0444
91.5546
90.2161
89.0462
88.0578
87.2594
86.6565
86.2518
86.047
86.0428
86.2394
86.6366
87.2335
88.0273
89.0131
90.1825
91.5226
93.016
94.64
96.367
98.1653
100
-300
-300
-300
-300
-300
-300
-300
-300
-300
-300
100
97.2866
94.6268
92.0719
89.6687
87.4578
85.4725
83.739
82.2759
81.096
80.2069
79.6126
79.3152
79.3152
79.6126
80.2069
81.096
82.2759
83.739
85.4725
87.4578
89.6687
92.0719
94.6268
97.2866
100
-300
-300
-300
-300
-300
-300
-300
-300
-300
-300
-300
-300
-300
-300
100
97.3045
94.662
92.123
89.7338
87.5346
85.5584
83.8311
82.3714
81.192
80.3009
79.7025
79.3991
79.3917
79.681
80.2665
81.147
82.3185
83.7737
85.5001
87.4791
89.6846
92.0831
94.6339
97.29
100
-300
-300
-300
-300
-300
-300
-300
-300
-300
-300
100
96.4573
92.9846
89.6489
86.5112
83.6245
81.0325
78.7691
76.8589
75.3184
74.1576
73.3817
72.9934
72.9934
73.3817
74.1576
75.3184
76.8589
78.7691
81.0325
83.6245
86.5112
89.6489
92.9846
96.4573
100
-300
-300
-300
-300
-300
-300
-300
-300
-300
-300
-300
-300
-300
-300
100
96.4859
93.0408
89.7305
86.6153
83.7474
81.1699
78.9165
77.0117
75.4721
74.3081
73.5255
73.1275
73.1157
73.4909
74.2528
75.3997
76.9268
78.8244
81.0764
83.6584
86.5363
89.6666
92.9958
96.4627
100
-300
-300
-300
-300
-300
-300
-300
-300
-300
-300
100
95.6872
91.4597
87.3989
83.5792
80.0651
76.9097
74.1543
71.829
69.9536
68.5404
67.596
67.1232
67.1232
67.596
68.5404
69.9536
71.829
74.1543
76.9097
80.0651
83.5792
87.3989
91.4597
95.6872
100
-300
-300
-300
-300
-300
-300
-300
-300
-300
-300
-300
-300
-300
-300
100
95.7313
91.5463
87.5247
83.7396
80.2544
77.1214
74.3815
72.0644
70.1905
68.7724
67.8175
67.3299
67.3117
67.764
68.687
70.0785
71.9331
74.239
76.9768
80.1168
83.6175
87.4258
91.4767
95.6954
100
-300
-300
-300
-300
-300
-300
-300
-300
-300
-300
100
94.9853
90.0697
85.348
80.9066
76.8205
73.1515
69.9477
67.2439
65.0633
63.4202
62.322
61.7723
61.7723
62.322
63.4202
65.0633
67.2439
69.9477
73.1515
76.8205
80.9066
85.348
90.0697
94.9853
100
-300
-300
-300
-300
-300
-300
-300
-300
-300
-300
-300
-300
-300
-300
100
95.0516
90.1999
85.5373
81.148
77.1055
73.4703
70.2897
67.5984
65.42
63.7694
62.6555
62.0833
62.0558
62.5746
63.6402
65.2507
67.3998
70.0744
73.2517
76.8974
80.9634
85.3877
90.0947
94.9973
100
-300
-300
-300
-300
-300
-300
-300
-300
-300
-300
100
94.3571
88.8258
83.5126
78.5148
73.9169
69.7884
66.1834
63.1409
60.6872
58.8382
57.6025
56.9839
56.9839
57.6025
58.8382
60.6872
63.1409
66.1834
69.7884
73.9169
78.5148
83.5126
88.8258
94.3571
100
-300
-300
-300
-300
-300
-300
-300
-300
-300
-300
-300
-300
-300
-300
100
94.4551
89.0182
83.7923
78.8716
74.3382
70.2596
66.689
63.665
61.2145
59.3545
58.0954
57.4435
57.4025
57.9751
59.1624
60.9629
63.3699
66.369
69.9349
74.0291
78.5975
83.5702
88.862
94.3745
100
-300
-300
-300
-300
-300
-300
-300
-300
-300
-300
100
93.8052
87.733
81.9002
76.4136
71.3661
66.8338
62.8762
59.5362
56.8426
54.8128
53.4563
52.7773
52.7773
53.4563
54.8128
56.8426
59.5362
62.8762
66.8338
71.3661
76.4136
81.9002
87.733
93.8052
100
-300
-300
-300
-300
-300
-300
-300
-300
-300
-300
-300
-300
-300
-300
100
93.9477
88.0125
82.3066
76.9323
71.9785
67.5191
63.6116
60.2986
57.6095
55.5637
54.173
53.445
53.385
53.9968
55.2826
57.2415
59.8669
63.1436
67.0442
71.5266
76.5316
81.9821
87.7843
93.8299
100
-300
-300
-300
-300
-300
-300
-300
-300
-300
-300
100
93.3292
86.7904
80.5094
74.6013
69.1659
64.2855
60.0238
56.4272
53.5266
51.3409
49.8802
49.149
49.149
49.8802
51.3409
53.5266
56.4272
60.0238
64.2855
69.1659
74.6013
80.5094
86.7904
93.3292
100
-300
-300
-300
-300
-300
-300
-300
-300
-300
-300
-300
-300
-300
-300
100
93.533
87.1903
81.0909
75.3435
70.0426
65.2665
61.0767
57.5189
54.6248
52.4159
50.9059
50.1042
50.0176
50.6519
52.0107
54.0942
56.8966
60.4023
64.5823
69.3916
74.7664
80.6236
86.8617
93.3634
100
-300
-300
-300
-300
-300
-300
-300
-300
-300
-300
100
92.9261
85.9921
79.3316
73.0665
67.3027
62.1274
57.6082
53.7943
50.7185
48.4008
46.8518
46.0764
46.0764
46.8518
48.4008
50.7185
53.7943
57.6082
62.1274
67.3027
73.0665
79.3316
85.9921
92.9261
100
-300
-300
-300
-300
-300
-300
-300
-300
-300
-300
-300
-300
-300
-300
100
93.2131
86.5556
80.1511
74.1126
68.5386
63.5107
59.0932
55.3342
52.2676
49.9168
48.2977
47.422
47.299
47.9365
49.3405
51.5132
54.4498
58.135
62.5389
67.6142
73.2933
79.4877
86.0892
92.9725
100
-300
-300
-300
-300
-300
-300
-300
-300
-300
-300
100
92.591
85.3284
78.3523
71.7904
65.7535
60.333
55.5998
51.6052
48.3837
45.9562
44.3339
43.5218
43.5218
44.3339
45.9562
48.3837
51.6052
55.5998
60.333
65.7535
71.7904
78.3523
85.3284
92.591
100
-300
-300
-300
-300
-300
-300
-300
-300
-300
-300
-300
-300
-300
-300
100
92.9891
86.1103
79.4897
73.2428
67.4699
62.2547
57.6632
53.7451
50.5363
48.0624
46.3417
45.3888
45.2162
45.8349
47.2541
49.4786
52.5055
56.3204
60.8935
66.1755
72.0957
78.5612
85.4576
92.6524
100
-300
-300
-300
-300
-300
-300
-300
-300
-300
-300
100
92.3173
84.7865
77.5528
70.7485
64.4887
58.868
53.96
49.818
46.4776
43.9604
42.2782
41.4361
41.4361
42.2782
43.9604
46.4776
49.818
53.96
58.868
64.4887
70.7485
77.5528
84.7865
92.3173
100
-300
-300
-300
-300
-300
-300
-300
-300
-300
-300
-300
-300
-300
-300
100
92.8616
85.8555
79.1082
72.7353
66.8375
61.4986
56.7854
52.7485
49.4253
46.8438
45.0254
43.9883
43.7492
44.3237
45.7251
47.9618
51.034
54.9291
59.6176
65.0494
71.1513
77.8263
84.9545
92.3969
100
-300
-300
-300
-300
-300
-300
-300
-300
-300
-300
100
92.0979
84.3521
76.9118
69.9133
63.4747
57.6936
52.6454
48.3851
44.9494
42.3604
40.6301
39.764
39.764
40.6301
42.3604
44.9494
48.3851
52.6454
57.6936
63.4747
69.9133
76.9118
84.3521
92.0979
100
-300
-300
-300
-300
-300
-300
-300
-300
-300
-300
-300
-300
-300
-300
100
92.831
85.7921
79.0077
72.5915
66.6423
61.2428
56.4588
52.3411
48.9285
46.2513
44.3348
43.2019
42.875
43.3755
44.7224
46.9293
50.0004
53.9258
58.6774
64.2049
70.4331
77.2614
84.565
92.1981
100
-300
-300
-300
-300
-300
-300
-300
-300
-300
-300
100
91.9252
84.0101
76.4071
69.2556
62.6764
56.7689
51.6105
47.2571
43.7463
41.1007
39.3327
38.4477
38.4477
39.3327
41.1007
43.7463
47.2571
51.6105
56.7689
62.6764
69.2556
76.4071
84.0101
91.9252
100
-300
-300
-300
-300
-300
-300
-300
-300
-300
-300
-300
-300
-300
-300
100
92.8981
85.9218
79.1907
72.8142
66.8875
61.4899
56.685
52.5227
49.0426
46.2776
44.2576
43.0119
42.5702
42.9618
44.2133
46.345
49.3666
53.2721
58.0356
63.6075
69.911
76.8425
84.272
92.0474
100
-300
-300
-300
-300
-300
-300
-300
-300
-300
-300
100
91.7916
83.7456
76.0169
68.7472
62.0591
56.054
50.8103
46.3849
42.8161
40.1268
38.3295
37.4299
37.4299
38.3295
40.1268
42.8161
46.3849
50.8103
56.054
62.0591
68.7472
76.0169
83.7456
91.7916
100
-300
-300
-300
-300
-300
-300
-300
-300
-300
-300
-300
-300
-300
-300
100
93.0644
86.2471
79.661
73.4087
67.5792
62.2465
57.4703
53.2982
49.7697
46.9205
44.7861
43.4041
42.814
43.0555
44.1651
46.1721
49.093
52.9273
57.6525
63.2199
69.5523
76.543
84.057
91.9351
100
-300
-300
-300
-300
-300
-300
-300
-300
-300
-300
100
91.6902
83.5448
75.7206
68.361
61.5904
55.5111
50.2026
45.7226
42.1097
39.3872
37.5678
36.657
36.657
37.5678
39.3872
42.1097
45.7226
50.2026
55.5111
61.5904
68.361
75.7206
83.5448
91.6902
100
-300
-300
-300
-300
-300
-300
-300
-300
-300
-300
-300
-300
-300
-300
100
93.3315
86.7717
80.4242
74.3823
68.7268
63.5238
58.8267
54.6789
51.1187
48.1844
45.9184
44.3688
43.5885
43.6309
44.5457
46.3731
49.1389
52.8492
57.4858
63.0022
69.3213
76.3335
83.8989
91.8502
100
-300
-300
-300
-300
-300
-300
-300
-300
-300
-300
100
91.6146
83.395
75.4996
68.073
61.2408
55.1061
49.7493
45.2286
41.5828
38.8356
36.9996
36.0806
36.0806
36.9996
38.8356
41.5828
45.2286
49.7493
55.1061
61.2407
68.073
75.4996
83.395
91.6146
100
-300
-300
-300
-300
-300
-300
-300
-300
-300
-300
-300
-300
-300
-300
100
93.7011
87.4993
81.4862
75.7441
70.3424
65.337
60.772
56.6838
53.1071
50.082
47.6592
45.9012
44.8787
44.6638
45.3228
46.91
49.4621
52.9932
57.4907
62.9113
69.1787
76.1815
83.7741
91.7804
100
-300
-300
-300
-300
-300
-300
-300
-300
-300
-300
100
91.5591
83.2852
75.3377
67.862
60.9846
54.8094
49.4173
44.8667
41.1968
38.4314
36.5833
35.6582
35.6582
36.5833
38.4314
41.1968
44.8666
49.4172
54.8094
60.9846
67.862
75.3377
83.2852
91.5591
100
-300
-300
-300
-300
-300
-300
-300
-300
-300
-300
-300
-300
-300
-300
100
94.1746
88.4328
82.8527
77.5029
72.4393
67.7045
63.3295
59.3393
55.7612
52.6348
50.0205
48.0006
46.6712
46.1291
46.4623
47.7419
50.0171
53.3113
57.6182
62.8992
69.08
76.0485
83.6541
91.7102
100
-300
-300
-300
-300
-300
-300
-300
-300
-300
-300
100
91.5193
83.2062
75.2211
67.7101
60.8002
54.5959
49.1782
44.6061
40.919
38.1405
36.2837
35.3542
35.3542
36.2837
38.1405
40.9189
44.6061
49.1782
54.5958
60.8002
67.7101
75.2211
83.2062
91.5192
100
-300
-300
-300
-300
-300
-300
-300
-300
-300
-300
-300
-300
-300
-300
100
94.7521
89.573
84.526
79.6646
75.0291
70.6454
66.5268
62.6806
59.119
55.8757
53.0217
50.6689
48.9504
47.9976
47.9251
48.823
50.7538
53.7503
57.8137
62.9111
68.9726
75.8879
83.503
91.6198
100
-300
-300
-300
-300
-300
-300
-300
-300
-300
-300
100
91.491
83.1503
75.1387
67.6027
60.6698
54.4448
49.0092
44.4219
40.7225
37.9348
36.0718
35.1392
35.1392
36.0718
37.9348
40.7225
44.4219
49.0092
54.4448
60.6698
67.6027
75.1387
83.1503
91.491
100
-300
-300
-300
-300
-300
-300
-300
-300
-300
-300
-300
-300
-300
-300
100
95.4313
90.9163
86.5029
82.2291
78.118
74.1763
70.3944
66.7523
63.234
59.8538
56.6911
53.9074
51.6944
50.2308
49.6624
50.099
51.6147
54.2509
58.0157
62.8839
68.7933
75.6403
83.2725
91.4814
100
-300
-300
-300
-300
-300
-300
-300
-300
-300
-300
100
91.4714
83.1115
75.0814
67.5281
60.5792
54.3399
48.8918
44.2939
40.586
37.7919
35.9246
34.9899
34.9899
35.9246
37.7919
40.5859
44.2939
48.8917
54.3399
60.5792
67.528
75.0814
83.1115
91.4714
100
-300
-300
-300
-300
-300
-300
-300
-300
-300
-300
-300
-300
-300
-300
100
96.2068
92.4527
88.7712
85.1852
81.7013
78.306
74.9625
71.6117
68.1859
64.6477
61.0692
57.7113
54.8654
52.7726
51.611
51.5046
52.5345
54.7467
58.1555
62.7445
68.4645
75.2272
82.8932
91.2519
100
-300
-300
-300
-300
-300
-300
-300
-300
-300
-300
100
91.458
83.085
75.0423
67.4771
60.5174
54.2683
48.8116
44.2065
40.4928
37.6943
35.8241
34.8879
34.8879
35.824
37.6943
40.4927
44.2064
48.8115
54.2682
60.5173
67.4771
75.0422
83.085
91.458
100
-300
-300
-300
-300
-300
-300
-300
-300
-300
-300
-300
-300
-300
-300
100
97.0688
94.1637
91.3057
88.5051
85.7554
83.0262
80.2535
77.3295
74.0996
70.3982
66.2125
62.0559
58.3939
55.5386
53.6865
52.9611
53.4396
55.1663
58.1588
62.4106
67.8914
74.5419
82.2591
90.8576
100
-300
-300
-300
-300
-300
-300
-300
-300
-300
-300
100
91.4491
83.0672
75.0161
67.4429
60.4758
54.2202
48.7578
44.1479
40.4302
37.6288
35.7566
34.8194
34.8194
35.7565
37.6287
40.4301
44.1477
48.7576
54.22
60.4757
67.4428
75.0159
83.0672
91.449
100
-300
-300
-300
-300
-300
-300
-300
-300
-300
-300
-300
-300
-300
-300
100
98.0024
96.0203
94.0648
92.1382
90.2275
88.2954
86.2633
83.9819
81.1793
77.4047
72.1878
66.8581
62.1497
58.401
55.7789
54.3768
54.2519
55.4382
57.952
61.796
66.9628
73.4388
81.1973
90.1538
100
-300
-300
-300
-300
-300
-300
-300
-300
-300
-300
100
91.4431
83.0555
74.9987
67.4204
60.4485
54.1885
48.7223
44.1092
40.3889
37.5856
35.7121
34.7743
34.7742
35.712
37.5855
40.3887
44.109
48.722
54.1882
60.4482
67.4202
74.9986
83.0554
91.4431
100
-300
-300
-300
-300
-300
-300
-300
-300
-300
-300
-300
-300
-300
-300
100
98.9877
97.9823
96.9885
96.0056
95.0233
94.0145
92.9185
91.6009
89.7371
86.4439
78.9876
71.8762
65.8943
61.1751
57.753
55.6526
54.8958
55.4992
57.473
60.8235
65.5629
71.7287
79.4171
88.8117
100
-300
-300
-300
-300
-300
-300
-300
-300
-300
-300
100
91.4393
83.0479
74.9875
67.4058
60.4307
54.1679
48.6992
44.0841
40.3622
37.5576
35.6832
34.7449
34.7449
35.683
37.5573
40.3618
44.0837
48.6988
54.1675
60.4303
67.4054
74.9872
83.0477
91.4392
100
-300
-300
-300
-300
-300
-300
-300
-300
-300
-300
-300
-300
-300
-300
100
100
100
100
100
100
100
100
100
100
100
85.9805
76.4782
69.2362
63.6273
59.465
56.6964
55.3105
55.3073
56.6869
59.4497
63.6068
69.2119
76.4529
85.9602
100
100
100
100
100
100
100
100
100
100
100
100
91.4369
83.043
74.9804
67.3964
60.4194
54.1548
48.6845
44.068
40.345
37.5396
35.6647
34.7261
34.726
35.6644
37.5392
40.3444
44.0673
48.6838
54.154
60.4186
67.3957
74.9798
83.0426
91.4366
100
-300
-300
-300
-300
-300
-300
-300
-300
-300
-300
-300
-300
-300
-300
-300
-300
-300
-300
-300
-300
-300
-300
-300
-300
100
88.8142
79.4172
71.7232
65.5502
60.8028
57.4443
55.4629
54.8523
55.6028
57.6978
61.1157
65.8326
71.8148
78.93
86.3945
89.692
91.5593
92.8806
93.9807
94.9942
95.9816
96.9702
97.9699
98.9814
100
100
91.4353
83.04
74.9759
67.3906
60.4123
54.1465
48.6753
44.0579
40.3342
37.5282
35.6529
34.7141
34.7139
35.6524
37.5275
40.3332
44.0567
48.674
54.1452
60.411
67.3894
74.9749
83.0393
91.435
100
-300
-300
-300
-300
-300
-300
-300
-300
-300
-300
-300
-300
-300
-300
-300
-300
-300
-300
-300
-300
-300
-300
-300
-300
100
90.1438
81.1759
73.4048
66.9159
61.7363
57.8803
55.3556
54.1598
54.2767
55.6725
58.2903
62.0368
66.7457
72.0786
77.3013
81.082
83.8913
86.1805
88.2216
90.1639
92.0858
94.0246
95.9931
97.9887
100
100
91.4344
83.0381
74.9731
67.3869
60.4078
54.1414
48.6695
44.0516
40.3274
37.521
35.6454
34.7064
34.7061
35.6446
37.5197
40.3257
44.0496
48.6673
54.1391
60.4056
67.385
74.9715
83.037
91.4338
100
-300
-300
-300
-300
-300
-300
-300
-300
-300
-300
-300
-300
-300
-300
-300
-300
-300
-300
-300
-300
-300
-300
-300
-300
100
90.8353
82.2143
74.4749
67.8028
62.3018
58.0315
55.0227
53.2821
52.7923
53.5091
55.3556
58.2081
61.8705
66.0307
70.223
73.9331
77.1739
80.1111
82.8992
85.6458
88.4148
91.2365
94.1168
97.0451
100
100
91.4338
83.0369
74.9714
67.3847
60.4051
54.1381
48.6658
44.0475
40.323
37.5163
35.6404
34.7012
34.7007
35.6391
37.5142
40.3202
44.0442
48.6622
54.1344
60.4014
67.3814
74.9687
83.035
91.4328
100
-300
-300
-300
-300
-300
-300
-300
-300
-300
-300
-300
-300
-300
-300
-300
-300
-300
-300
-300
-300
-300
-300
-300
-300
100
91.2142
82.8184
75.1165
68.3197
62.5683
57.951
54.5175
52.2845
51.2379
51.3318
52.4851
54.574
57.4205
60.7833
64.3709
67.9222
71.3649
74.7363
78.1041
81.5271
85.0417
88.6612
92.3781
96.1692
100
100
91.4334
83.0362
74.9703
67.3832
60.4033
54.136
48.6634
44.0448
40.3199
37.5129
35.6367
34.6972
34.6965
35.6346
37.5095
40.3154
44.0394
48.6574
54.1299
60.3974
67.3779
74.9659
83.0331
91.4318
100
-300
-300
-300
-300
-300
-300
-300
-300
-300
-300
-300
-300
-300
-300
-300
-300
-300
-300
-300
-300
-300
-300
-300
-300
100
91.4226
83.1561
75.4685
68.5695
62.6123
57.7013
53.8993
51.232
49.6914
49.2363
49.7925
51.2505
53.4642
56.2551
59.4312
62.831
66.3749
70.0484
73.8674
77.8515
82.0096
86.3345
90.8021
95.3737
100
100
91.4332
83.0357
74.9696
67.3823
60.4021
54.1346
48.6616
44.0427
40.3175
37.5102
35.6335
34.6936
34.6924
35.6301
37.5046
40.3102
44.034
48.652
54.1246
60.3925
67.3736
74.9624
83.0307
91.4306
100
-300
-300
-300
-300
-300
-300
-300
-300
-300
-300
-300
-300
-300
-300
-300
-300
-300
-300
-300
-300
-300
-300
-300
-300
100
91.5313
83.3279
75.6297
68.6366
62.5038
57.3428
53.2242
50.1815
48.2139
47.2887
47.3435
48.288
50.0077
52.371
55.2449
58.5172
62.117
66.0101
70.184
74.631
79.3368
84.2744
89.4025
94.666
100
100
91.433
83.0354
74.969
67.3816
60.4011
54.1333
48.6601
44.0408
40.3152
37.5073
35.6301
34.6895
34.6876
35.6246
37.4985
40.3035
44.0269
48.6448
54.1175
60.3858
67.3677
74.9577
83.0273
91.4288
100
-300
-300
-300
-300
-300
-300
-300
-300
-300
-300
-300
-300
-300
-300
-300
-300
-300
-300
-300
-300
-300
-300
-300
-300
100
91.5799
83.3965
75.6687
68.5859
62.3006
56.9264
52.5388
49.1774
46.8485
45.5292
45.1702
45.7003
47.0316
49.067
51.7104
54.8794
58.5134
62.5723
67.0284
71.8559
77.0224
82.484
88.183
94.0485
100
100
91.4329
83.0351
74.9686
67.3809
60.4002
54.1321
48.6584
44.0386
40.3124
37.5038
35.6257
34.6842
34.6813
35.6172
37.49
40.2941
44.0169
48.6344
54.1071
60.376
67.359
74.9506
83.0223
91.4262
100
-300
-300
-300
-300
-300
-300
-300
-300
-300
-300
-300
-300
-300
-300
-300
-300
-300
-300
-300
-300
-300
-300
-300
-300
100
91.5921
83.4016
75.6326
68.4648
62.0467
56.4918
51.8782
48.2503
45.6212
43.9771
43.2812
43.4793
44.5047
46.2852
48.75
51.8365
55.4938
59.6811
64.363
69.5019
75.052
80.9552
87.1394
93.5194
100
100
91.4327
83.0348
74.9681
67.3801
60.3991
54.1306
48.6563
44.0358
40.3087
37.499
35.6197
34.6767
34.6723
35.6065
37.4778
40.2805
44.0021
48.619
54.0918
60.3614
67.3461
74.94
83.0148
91.4223
100
-300
-300
-300
-300
-300
-300
-300
-300
-300
-300
-300
-300
-300
-300
-300
-300
-300
-300
-300
-300
-300
-300
-300
-300
100
91.5824
83.369
75.553
68.3063
61.7734
56.0666
51.2656
47.4184
44.5439
42.6362
41.6696
41.6036
42.3884
43.9702
46.2961
49.3177
52.9921
57.2804
62.1433
67.5355
73.4014
79.6716
86.2617
93.074
100
100
91.4325
83.0344
74.9674
67.3791
60.3977
54.1285
48.6536
44.032
40.3036
37.4924
35.6112
34.6661
34.6593
35.5912
37.46
40.2606
43.9805
48.5964
54.0691
60.3398
67.3267
74.9242
83.0036
91.4165
100
-300
-300
-300
-300
-300
-300
-300
-300
-300
-300
-300
-300
-300
-300
-300
-300
-300
-300
-300
-300
-300
-300
-300
-300
100
91.5599
83.315
75.4502
68.1319
61.5006
55.6677
50.7134
46.6885
43.6165
41.4983
40.3171
40.0434
40.6403
42.0678
44.286
47.2572
50.9452
55.3136
60.3211
65.9177
72.0407
78.6115
85.5359
92.7053
100
100
91.4323
83.0339
74.9666
67.3778
60.3958
54.1258
48.6497
44.0268
40.2965
37.4831
35.5993
34.6511
34.6409
35.5692
37.4344
40.2317
43.949
48.5633
54.0358
60.308
67.2982
74.9008
82.9869
91.4078
100
-300
-300
-300
-300
-300
-300
-300
-300
-300
-300
-300
-300
-300
-300
-300
-300
-300
-300
-300
-300
-300
-300
-300
-300
100
91.53
83.2489
75.3361
67.9536
61.239
55.3026
50.2249
46.0584
42.8304
40.547
39.1983
38.7634
39.2153
40.5242
42.66
45.5929
49.2924
53.7242
58.8468
64.6069
70.9364
77.7501
84.9456
92.4052
100
100
91.432
83.0332
74.9655
67.3761
60.3932
54.1221
48.6444
44.0195
40.2867
37.4701
35.5825
34.6299
34.6149
35.5379
37.3979
40.1903
43.9037
48.5154
53.9874
60.2615
67.2563
74.8663
82.9624
91.395
100
-300
-300
-300
-300
-300
-300
-300
-300
-300
-300
-300
-300
-300
-300
-300
-300
-300
-300
-300
-300
-300
-300
-300
-300
100
91.4952
83.1753
75.2159
67.7762
60.9916
54.9713
49.7958
45.5189
42.1703
39.7599
38.2832
37.7258
38.0678
39.2872
41.3611
44.2659
47.9755
52.4578
57.6713
63.5608
70.0543
77.0614
84.4733
92.1651
100
100
91.4316
83.0324
74.9639
67.3738
60.3897
54.117
48.6373
44.0096
40.2734
37.4524
35.5595
34.6007
34.5786
35.4942
37.3467
40.1319
43.8393
48.4471
53.9179
60.1944
67.1956
74.8161
82.9265
91.3763
100
-300
-300
-300
-300
-300
-300
-300
-300
-300
-300
-300
-300
-300
-300
-300
-300
-300
-300
-300
-300
-300
-300
-300
-300
100
91.4559
83.0945
75.0896
67.5984
60.755
54.6675
49.4162
45.0553
41.6162
39.1113
37.5398
36.8918
37.1529
38.3067
40.3358
43.2212
46.9401
51.4627
56.7476
62.7385
69.3605
76.5194
84.1013
91.9759
100
100
91.431
83.0312
74.962
67.3707
60.3851
54.1103
48.6278
43.9964
40.2554
37.4284
35.5282
34.5608
34.529
35.434
37.2757
40.0506
43.7491
48.3507
53.8193
60.0986
67.1085
74.7438
82.8746
91.3492
100
-300
-300
-300
-300
-300
-300
-300
-300
-300
-300
-300
-300
-300
-300
-300
-300
-300
-300
-300
-300
-300
-300
-300
-300
100
91.4107
83.0038
74.9527
67.4138
60.5205
54.3798
49.0714
44.6494
41.1454
38.5736
36.9351
36.2235
36.4279
37.5361
39.5345
42.408
46.1363
50.6913
56.0321
62.1015
68.8231
76.0994
83.8131
91.8292
100
100
91.4304
83.0297
74.9594
67.3667
60.3791
54.1016
48.6153
43.979
40.2316
37.3965
35.4865
34.5074
34.4623
35.3525
37.1789
39.9389
43.6245
48.2166
53.6811
59.9633
66.9847
74.6404
82.8
91.3101
100
-300
-300
-300
-300
-300
-300
-300
-300
-300
-300
-300
-300
-300
-300
-300
-300
-300
-300
-300
-300
-300
-300
-300
-300
100
91.3564
82.897
74.7964
67.2114
60.2748
54.0927
48.7434
44.28
40.7337
38.1186
36.4373
35.6848
35.8531
36.9325
38.9126
41.7807
45.5189
50.1004
55.485
61.615
68.4128
75.7789
83.5932
91.7173
100
100
91.4295
83.0278
74.9562
67.3616
60.3714
54.0904
48.5993
43.9566
40.2008
37.3551
35.4319
34.4372
34.3738
35.244
37.049
39.788
43.4546
48.0323
53.4895
59.7742
66.8101
74.4935
82.6934
91.2539
100
-300
-300
-300
-300
-300
-300
-300
-300
-300
-300
-300
-300
-300
-300
-300
-300
-300
-300
-300
-300
-300
-300
-300
-300
100
91.2881
82.7647
74.6077
66.9752
60
53.7864
48.4109
43.9241
40.3557
37.7188
36.0158
35.2426
35.3925
36.4578
38.4303
41.2992
45.0484
49.6524
55.0715
61.2482
68.1039
75.5378
83.4278
91.6332
100
100
91.4284
83.0254
74.9521
67.3553
60.3619
54.0763
48.5791
43.9282
40.1616
37.3021
35.3618
34.3464
34.2588
35.1017
36.8776
39.5872
43.2265
47.7824
53.227
59.5123
66.5657
74.2859
82.5416
91.1736
100
-300
-300
-300
-300
-300
-300
-300
-300
-300
-300
-300
-300
-300
-300
-300
-300
-300
-300
-300
-300
-300
-300
-300
-300
100
91.1982
82.5929
74.3678
66.6837
59.673
53.4374
48.0498
43.5573
39.9862
37.3476
35.6425
34.8668
35.0144
36.0788
38.0532
40.9288
44.6908
49.3148
54.7618
60.9746
67.8741
75.3587
83.3051
91.5709
100
100
91.4271
83.0226
74.9473
67.3476
60.3502
54.0591
48.5542
43.8929
40.1127
37.2358
35.2735
34.2312
34.112
34.9188
36.6552
39.3241
42.9247
47.4479
52.8712
59.1529
66.226
73.9937
82.3256
91.0584
100
-300
-300
-300
-300
-300
-300
-300
-300
-300
-300
-300
-300
-300
-300
-300
-300
-300
-300
-300
-300
-300
-300
-300
-300
100
91.0758
82.3619
74.0513
66.3088
59.2652
53.0179
47.6337
43.1539
39.6001
36.9798
35.2917
34.5309
34.6912
35.7669
37.7526
40.6406
44.4176
49.0604
54.5308
60.7719
67.7047
75.2272
83.2152
91.5252
100
100
91.4256
83.0193
74.9415
67.3384
60.3363
54.0384
48.5242
43.8502
40.0531
37.1543
35.1644
34.088
33.928
34.6877
36.3718
38.9854
42.5314
47.0063
52.3949
58.664
65.7562
73.5828
82.0174
90.8922
100
-300
-300
-300
-300
-300
-300
-300
-300
-300
-300
-300
-300
-300
-300
-300
-300
-300
-300
-300
-300
-300
-300
-300
-300
100
90.9043
82.0425
73.6226
65.8132
58.7411
52.4953
47.1333
42.6878
39.1733
36.5924
34.941
34.2123
34.3999
35.4988
37.5045
40.4108
44.2057
48.8671
54.3581
60.6221
67.5805
75.1313
83.1498
91.4921
100
100
91.4239
83.0155
74.9349
67.3279
60.32
54.0142
48.4888
43.7995
39.982
37.0565
35.0325
33.9137
33.7023
34.4017
36.0175
38.5571
42.0277
46.4323
51.7649
58.0048
65.1092
73.0044
81.5745
90.6496
100
-300
-300
-300
-300
-300
-300
-300
-300
-300
-300
-300
-300
-300
-300
-300
-300
-300
-300
-300
-300
-300
-300
-300
-300
100
90.6578
81.5916
73.0315
65.1478
58.0569
51.8325
46.5176
42.1326
38.683
36.1651
34.571
33.8922
34.1219
35.2557
37.2902
40.2206
44.0367
48.7176
54.2275
60.5108
67.4895
75.0617
83.1027
91.4683
100
100
91.422
83.0113
74.9277
67.3161
60.3018
53.9865
48.4481
43.7408
39.8991
36.9417
34.8765
33.7061
33.4313
34.0551
35.5836
38.0263
41.3944
45.6983
50.9432
57.1248
64.2221
72.1875
80.9295
90.287
100
-300
-300
-300
-300
-300
-300
-300
-300
-300
-300
-300
-300
-300
-300
-300
-300
-300
-300
-300
-300
-300
-300
-300
-300
100
90.2925
80.9409
72.2055
64.2478
57.1594
50.988
45.7547
41.4637
38.1093
35.6808
34.1665
33.5562
33.843
35.0232
37.0952
40.0559
43.8966
48.5984
54.1267
60.4271
67.4223
75.011
83.0686
91.4512
100
100
91.4201
83.007
74.92
67.3035
60.2818
53.9561
48.4027
43.6747
39.8049
36.8102
34.6966
33.4646
33.1134
33.6447
35.0642
37.3826
40.6147
44.7778
49.8893
55.9645
63.0122
71.0275
79.9714
89.7243
100
-300
-300
-300
-300
-300
-300
-300
-300
-300
-300
-300
-300
-300
-300
-300
-300
-300
-300
-300
-300
-300
-300
-300
-300
100
89.7279
79.9789
71.0393
63.029
55.987
49.9186
44.8145
40.6597
37.4364
35.1272
33.7168
33.1942
33.5532
34.7915
36.9095
39.9063
43.7755
48.4999
54.0468
60.363
67.3722
74.9739
83.0441
91.439
100
100
91.4182
83.0028
74.9124
67.2906
60.2611
53.9238
48.3538
43.6025
39.701
36.6637
34.4944
33.1908
32.7497
33.1705
34.4575
36.621
39.6777
43.6499
48.5657
54.4599
61.3768
69.3729
78.509
88.7966
100
-300
-300
-300
-300
-300
-300
-300
-300
-300
-300
-300
-300
-300
-300
-300
-300
-300
-300
-300
-300
-300
-300
-300
-300
100
88.7989
78.5138
69.3805
61.3876
54.4744
48.5844
43.6734
39.7064
36.6554
34.4977
33.2165
32.8012
33.2472
34.5548
36.727
39.7656
43.6668
48.4157
53.9816
60.3128
67.3344
74.9467
83.0265
91.4303
100
100
91.4168
82.9994
74.9056
67.2786
60.2409
53.8912
48.3033
43.5267
39.5901
36.5055
34.2735
32.8889
32.3449
32.6375
33.768
35.7445
38.5826
42.3058
46.9478
52.5563
59.2052
67.0179
76.2081
87.1175
100
-300
-300
-300
-300
-300
-300
-300
-300
-300
-300
-300
-300
-300
-300
-300
-300
-300
-300
-300
-300
-300
-300
-300
-300
100
87.1189
76.2112
67.0227
59.2121
52.5654
46.9596
42.3206
38.6006
35.7661
33.7933
32.6664
32.3772
32.9243
34.3115
36.5451
39.6306
43.5669
48.3421
53.9275
60.2733
67.3061
74.9272
83.0142
91.4244
100
100
91.4161
82.9973
74.9009
67.269
60.2232
53.8609
48.2542
43.4506
39.4764
36.3405
34.0403
32.5664
31.9079
32.0562
33.008
34.7667
37.3434
40.7578
45.0396
50.2345
56.4189
63.7382
72.5196
83.6461
100
100
100
100
100
100
100
100
100
100
100
100
100
100
100
100
100
100
100
100
100
100
100
100
100
100
83.647
72.5216
63.7412
56.4232
50.2402
45.0469
40.7669
37.3546
34.78
33.0236
32.0741
31.9278
32.5882
34.0637
36.365
39.5014
43.4755
48.2782
53.8833
60.2432
67.2859
74.9142
83.0065
91.4207
100
100
91.4166
82.9977
74.8997
67.2639
60.2107
53.8362
48.2106
43.3793
39.3659
36.1761
33.8034
32.2339
31.4518
31.4429
32.1978
33.7129
35.9919
39.0447
42.8884
47.5477
53.0588
59.4739
66.8537
75.168
83.646
87.1172
88.7962
89.7237
90.2859
90.6479
90.8895
91.054
91.1667
91.2432
91.2935
91.324
91.3384
91.3384
91.324
91.2935
91.2432
91.1667
91.054
90.8895
90.6479
90.2859
89.7237
88.7962
87.1173
83.6462
75.1686
66.8549
59.4757
53.0614
47.5511
42.8928
39.0503
35.9987
33.7211
32.2072
31.4538
31.4639
32.2472
33.8176
36.191
39.3811
43.3945
48.2252
53.8498
60.2229
67.2742
74.9078
83.0033
91.4195
100
100
91.4193
83.0022
74.9045
67.2665
60.2074
53.8218
48.1782
43.3196
39.2667
36.0219
33.5744
31.9057
30.9943
30.8198
31.3654
32.6197
34.576
37.232
40.5869
44.6381
49.374
54.7575
60.6822
66.8536
72.5194
76.2077
78.5083
79.9702
80.9275
81.5712
82.0121
82.3172
82.5283
82.6727
82.7681
82.826
82.8534
82.8534
82.826
82.7681
82.6727
82.5283
82.3172
82.0121
81.5712
80.9275
79.9702
78.5083
76.2078
72.5196
66.8541
60.6829
54.7587
49.3755
44.6402
40.5896
37.2353
34.5801
32.6245
31.3711
30.8263
31.0016
31.9136
33.5829
36.0308
39.2758
43.3286
48.1869
53.8299
60.2147
67.2726
74.9094
83.0055
91.421
100
100
91.425
83.0128
74.9183
67.2808
60.2184
53.8241
48.1644
43.2801
39.189
35.8899
33.3679
31.5993
30.557
30.2138
30.5454
31.5314
33.1549
35.4006
38.2508
41.6793
45.6408
50.0521
54.7575
59.4737
63.7379
67.0173
69.3719
71.0258
72.1847
72.9998
73.5753
73.9817
74.2671
74.4642
74.5954
74.6754
74.7133
74.7133
74.6754
74.5954
74.4642
74.2671
73.9817
73.5753
72.9998
72.1847
71.0258
69.3719
67.0173
63.7381
59.474
54.7579
50.0528
45.6417
41.6805
38.2523
35.4026
33.1573
31.5343
30.5487
30.2176
30.5613
31.604
33.3729
35.8952
39.1944
43.2855
48.1695
53.8289
60.2227
67.2845
74.9212
83.0148
91.426
100
100
91.4352
83.0324
74.9455
67.3127
60.2508
53.8514
48.1791
43.2723
39.146
35.7954
33.2015
31.3356
30.1649
29.6556
29.7759
30.497
31.7921
33.6348
35.9942
38.8286
42.0762
45.6408
49.3739
53.0586
56.4185
59.2045
61.3756
63.0101
64.2186
65.1035
65.747
66.2113
66.5426
66.7741
66.9295
67.0248
67.07
67.07
67.0248
66.9295
66.7741
66.5426
66.2113
65.747
65.1035
64.2187
63.0101
61.3756
59.2046
56.4186
53.0588
49.3741
45.6412
42.0768
38.8294
35.9951
33.6359
31.7935
30.4986
29.7779
29.6579
30.1674
31.3384
33.2044
35.7985
39.1491
43.2754
48.1821
53.8542
60.2533
67.3148
74.9471
83.0335
91.4358
100
100
91.4518
83.0647
74.9915
67.3693
60.3136
53.9145
48.2348
43.3105
39.1538
35.7568
33.0962
31.1389
29.8465
29.179
29.0977
29.5662
30.5498
32.013
33.9164
36.2105
38.8286
41.6792
44.638
47.5474
50.2341
52.5555
54.4585
55.9621
57.1209
57.9983
58.6536
59.1363
59.4863
59.7338
59.9014
60.0048
60.0541
60.0541
60.0048
59.9014
59.7338
59.4863
59.1363
58.6536
57.9983
57.1209
55.9621
54.4585
52.5555
50.2341
47.5475
44.6381
41.6794
38.8289
36.2109
33.917
32.0137
30.5506
29.5672
29.0988
29.1802
29.8479
31.1405
33.0979
35.7585
39.1556
43.3123
48.2365
53.9161
60.315
67.3705
74.9924
83.0654
91.4522
100
100
91.4773
83.1146
75.0636
67.4602
60.4187
54.0273
48.3473
43.4125
39.2325
35.7962
33.0768
31.0368
29.6329
28.8196
28.5523
28.7881
29.4858
30.6041
32.0983
33.9164
35.9941
38.2507
40.5867
42.8881
45.0391
46.9469
48.5641
49.8868
50.939
51.758
52.3838
52.8536
53.1994
53.4468
53.6158
53.7208
53.771
53.771
53.7208
53.6158
53.4468
53.1994
52.8536
52.3838
51.758
50.939
49.8868
48.5642
46.9469
45.0391
42.8881
40.5868
38.2508
35.9943
33.9167
32.0986
30.6045
29.4863
28.7886
28.5529
28.8203
29.6337
31.0377
33.0778
35.7972
39.2335
43.4135
48.3483
54.0282
60.4195
67.4609
75.0642
83.115
91.4775
100
100
91.5148
83.1884
75.1711
67.5976
60.5807
54.2072
48.5365
43.6005
39.4064
35.9404
33.1723
31.061
29.5588
28.6158
28.1821
28.21
28.6534
29.4671
30.6041
32.013
33.6347
35.4005
37.2318
39.0444
40.7573
42.3049
43.6483
44.7752
45.694
46.4253
46.9951
47.4301