# vtk DataFile Version 2.0
LBE two cylinders
ASCII
DATASET STRUCTURED_POINTS
DIMENSIONS 76 76 1
ASPECT_RATIO 1 1 1
ORIGIN 0 0 0
POINT_DATA 5776
SCALARS temp double 1
LOOKUP_TABLE default
100
100
100
100
100
100
100
100
100
100
100
100
100
100
100
100
100
100
100
100
100
100
100
100
100
100
-300
-300
-300
-300
-300
-300
-300
-300
-300
-300
-300
-300
-300
-300
100
100
100
100
100
100
100
100
100
100
100
100
100
100
100
100
100
100
100
100
100
100
100
100
100
100
-300
-300
-300
-300
-300
-300
-300
-300
-300
-300
100
98.5328
97.1083
95.7652
94.5361
93.4445
92.5044
91.7207
91.0908
90.6064
90.2568
90.031
89.9206
89.9206
90.031
90.2568
90.6064
91.0908
91.7207
92.5044
93.4445
94.5361
95.7652
97.1083
98.5328
100
-300
-300
-300
-300
-300
-300
-300
-300
-300
-300
-300
-300
-300
-300
100
98.5332
97.109
95.7663
94.5374
93.446
92.5061
91.7225
91.0926
90.6081
90.2584
90.0325
89.9219
89.9217
90.032
90.2575
90.607
91.0912
91.7211
92.5046
93.4446
94.5362
95.7653
97.1083
98.5329
100
-300
-300
-300
-300
-300
-300
-300
-300
-300
-300
100
97.108
94.3
91.6527
89.2299
87.0782
85.2252
83.6806
82.4389
81.4841
80.795
80.3501
80.1323
80.1323
80.3501
80.795
81.4841
82.4389
83.6806
85.2252
87.0782
89.2299
91.6527
94.3
97.108
100
-300
-300
-300
-300
-300
-300
-300
-300
-300
-300
-300
-300
-300
-300
100
97.109
94.3018
91.6554
89.2333
87.0821
85.2294
83.685
82.4433
81.4884
80.799
80.3537
80.1355
80.1351
80.3524
80.7969
81.4856
82.44
83.6814
85.2258
87.0786
89.2302
91.6529
94.3001
97.1081
100
-300
-300
-300
-300
-300
-300
-300
-300
-300
-300
100
95.7643
91.6515
87.7742
84.2257
81.0742
78.3603
76.098
74.2794
72.881
71.8718
71.2201
70.9012
70.9012
71.2201
71.8718
72.881
74.2794
76.098
78.3603
81.0742
84.2257
87.7742
91.6515
95.7643
100
-300
-300
-300
-300
-300
-300
-300
-300
-300
-300
-300
-300
-300
-300
100
95.7662
91.6552
87.7796
84.2325
81.0821
78.3688
76.1069
74.2884
72.8898
71.88
71.2276
70.9078
70.9069
71.2249
71.8756
72.8841
74.2817
76.0997
78.3615
81.0751
84.2263
87.7745
91.6517
95.7644
100
-300
-300
-300
-300
-300
-300
-300
-300
-300
-300
100
94.5335
89.2257
84.2217
79.6422
75.575
72.0726
69.153
66.806
65.0015
63.699
62.8581
62.4465
62.4465
62.8581
63.699
65.0015
66.806
69.153
72.0726
75.575
79.6422
84.2217
89.2257
94.5335
100
-300
-300
-300
-300
-300
-300
-300
-300
-300
-300
-300
-300
-300
-300
100
94.5372
89.2328
84.232
79.6552
75.5901
72.089
69.1702
66.8233
65.0183
63.7148
62.8725
62.4592
62.4575
62.8673
63.7065
65.0074
66.8105
69.1563
72.0749
75.5766
79.6432
84.2224
89.226
94.5337
100
-300
-300
-300
-300
-300
-300
-300
-300
-300
-300
100
93.4386
87.0676
81.0615
75.5648
70.683
66.4791
62.9749
60.158
57.9922
56.4289
55.4196
54.9256
54.9256
55.4196
56.4289
57.9922
60.158
62.9749
66.4791
70.683
75.5648
81.0615
87.0676
93.4386
100
-300
-300
-300
-300
-300
-300
-300
-300
-300
-300
-300
-300
-300
-300
100
93.4454
87.0809
81.0806
75.5888
70.711
66.5097
63.0069
60.1902
58.0234
56.4583
55.4465
54.9494
54.9461
55.4367
56.4428
58.0031
60.1663
62.981
66.4835
70.686
75.5666
81.0626
87.0683
93.4389
100
-300
-300
-300
-300
-300
-300
-300
-300
-300
-300
100
92.4925
85.2029
78.3307
72.0415
66.456
61.646
57.6367
54.4138
51.9358
50.1472
48.9925
48.4274
48.4274
48.9925
50.1472
51.9358
54.4138
57.6367
61.646
66.456
72.0415
78.3307
85.2029
92.4925
100
-300
-300
-300
-300
-300
-300
-300
-300
-300
-300
-300
-300
-300
-300
100
92.5048
85.227
78.3654
72.0851
66.5066
61.7015
57.6947
54.4722
51.9925
50.2007
49.0413
48.4706
48.4646
49.0236
50.1725
51.9556
54.4289
57.6477
61.6538
66.4612
72.0448
78.3328
85.204
92.493
100
-300
-300
-300
-300
-300
-300
-300
-300
-300
-300
100
91.6983
83.6376
76.0385
69.0841
62.9078
57.5892
53.156
49.5923
46.8524
44.8748
43.598
42.9731
42.9731
43.598
44.8748
46.8524
49.5923
53.156
57.5892
62.9078
69.0841
76.0385
83.6376
91.6983
100
-300
-300
-300
-300
-300
-300
-300
-300
-300
-300
-300
-300
-300
-300
100
91.7201
83.6802
76.0999
69.1613
62.9975
57.6875
53.2588
49.6958
46.953
44.9696
43.6846
43.0499
43.0392
43.6532
44.9195
46.8874
49.6189
53.1754
57.6029
62.917
69.0899
76.042
83.6395
91.6991
100
-300
-300
-300
-300
-300
-300
-300
-300
-300
-300
100
91.0506
82.3611
74.1692
66.6722
60.0143
54.2809
49.502
45.6605
42.707
40.5753
39.1991
38.5255
38.5255
39.1991
40.5753
42.707
45.6605
49.502
54.2809
60.0143
66.6722
74.1692
82.3611
91.0506
100
-300
-300
-300
-300
-300
-300
-300
-300
-300
-300
-300
-300
-300
-300
100
91.0883
82.4346
74.2751
66.8057
60.1693
54.4509
49.6799
45.8397
42.8813
40.7395
39.349
38.6584
38.6399
39.2946
40.6526
42.7676
45.7064
49.5354
54.3043
60.0298
66.682
74.1749
82.3641
91.0519
100
-300
-300
-300
-300
-300
-300
-300
-300
-300
-300
100
90.5374
81.3495
72.6878
64.761
57.7214
51.6594
46.6066
42.5451
39.4224
37.1686
35.7136
35.0015
35.0015
35.7136
37.1686
39.4224
42.5451
46.6066
51.6594
57.7214
64.761
72.6878
81.3495
90.5374
100
-300
-300
-300
-300
-300
-300
-300
-300
-300
-300
-300
-300
-300
-300
100
90.6009
81.4734
72.8665
64.9862
57.983
51.9464
46.9072
42.848
39.7171
37.4463
35.9673
35.2263
35.1949
35.875
37.2991
39.5245
42.6222
46.6626
51.6983
57.747
64.7769
72.697
81.3543
90.5394
100
-300
-300
-300
-300
-300
-300
-300
-300
-300
-300
100
90.1421
80.5704
71.547
63.2892
55.9556
49.6406
44.377
40.146
36.8931
34.5453
33.0297
32.2878
32.2878
33.0297
34.5453
36.8931
40.146
44.377
49.6406
55.9556
63.2892
71.547
80.5704
90.1421
100
-300
-300
-300
-300
-300
-300
-300
-300
-300
-300
-300
-300
-300
-300
100
90.2465
80.7744
71.8411
63.66
56.3868
50.1137
44.8728
40.6459
37.3798
35.0041
33.4488
32.6593
32.6072
33.296
34.7604
37.061
40.2724
44.4683
49.7036
55.9968
63.3144
71.5612
80.5776
90.145
100
-300
-300
-300
-300
-300
-300
-300
-300
-300
-300
100
89.8462
79.9872
70.693
62.1875
54.6339
48.1295
42.7081
38.3503
34.9999
32.5819
31.0208
30.2568
30.2568
31.0208
32.5819
34.9999
38.3503
42.7081
48.1295
54.6339
62.1875
70.693
79.9872
89.8462
100
-300
-300
-300
-300
-300
-300
-300
-300
-300
-300
-300
-300
-300
-300
100
90.014
80.3149
71.1657
62.7837
55.3275
48.8911
43.5068
39.1561
35.7848
33.3219
31.6971
30.8561
30.7718
31.4498
32.9277
35.2693
38.5523
42.8532
48.2288
54.6979
62.2259
70.7141
79.9975
89.8502
100
-300
-300
-300
-300
-300
-300
-300
-300
-300
-300
100
89.6309
79.5628
70.0716
61.3857
53.6721
47.0299
41.4936
37.0436
33.6224
31.1532
29.5591
28.7789
28.7789
29.5591
31.1532
33.6224
37.0436
41.4936
47.0299
53.6721
61.3857
70.0716
79.5628
89.6309
100
-300
-300
-300
-300
-300
-300
-300
-300
-300
-300
-300
-300
-300
-300
100
89.8939
80.0767
70.813
62.3216
54.7615
48.227
42.7502
38.3121
34.8587
32.3193
30.6248
29.723
29.5897
30.2336
31.6959
34.0439
37.3584
41.7184
47.1821
53.7687
61.4422
70.1014
79.5766
89.6358
100
-300
-300
-300
-300
-300
-300
-300
-300
-300
-300
100
89.4785
79.2625
69.6318
60.8183
52.9914
46.2518
40.6343
36.119
32.6476
30.1423
28.5249
27.7333
27.7333
28.5249
30.1423
32.6476
36.119
40.6343
46.2518
52.9914
60.8183
69.6318
79.2625
89.4785
100
-300
-300
-300
-300
-300
-300
-300
-300
-300
-300
-300
-300
-300
-300
100
89.881
80.0493
70.7675
62.2528
54.6626
48.0897
42.5652
38.0698
34.5501
31.9373
30.1653
29.1859
28.9796
29.5602
30.9736
33.2911
36.5972
40.9732
46.4785
53.1326
60.8982
69.6716
79.2792
89.4838
100
-300
-300
-300
-300
-300
-300
-300
-300
-300
-300
100
89.3736
79.0558
69.3291
60.4278
52.523
45.7162
40.0429
35.4827
31.9768
29.4466
27.8132
27.0137
27.0137
27.8132
29.4466
31.9768
35.4827
40.0429
45.7162
52.523
60.4278
69.3291
79.0558
89.3736
100
-300
-300
-300
-300
-300
-300
-300
-300
-300
-300
-300
-300
-300
-300
100
89.9751
80.2319
71.0278
62.5749
55.0267
48.4725
42.9414
38.4137
34.8373
32.1465
30.2803
29.1972
28.8849
29.3647
30.6891
32.9348
36.1904
40.5398
46.0439
52.7218
60.5354
69.3783
79.0729
89.3774
100
-300
-300
-300
-300
-300
-300
-300
-300
-300
-300
100
89.3034
78.9174
69.1264
60.1663
52.2093
45.3577
39.6469
35.0568
31.5278
28.9809
27.3367
26.532
26.532
27.3367
28.9809
31.5278
35.0568
39.6469
45.3577
52.2093
60.1663
69.1264
78.9174
89.3034
100
-300
-300
-300
-300
-300
-300
-300
-300
-300
-300
-300
-300
-300
-300
100
90.181
80.6341
71.6075
63.3052
55.8734
49.3961
43.8989
39.3609
35.7317
32.9502
30.9632
29.7389
29.2762
29.6069
30.793
32.9185
36.077
40.3555
45.8163
52.4786
60.3028
69.1801
78.9288
89.3015
100
-300
-300
-300
-300
-300
-300
-300
-300
-300
-300
100
89.2576
78.8272
68.9943
59.996
52.005
45.1241
39.389
34.7792
31.2352
28.6775
27.0264
26.2182
26.2182
27.0264
28.6775
31.2352
34.7792
39.389
45.1241
52.005
59.996
68.9943
78.8272
89.2576
100
-300
-300
-300
-300
-300
-300
-300
-300
-300
-300
-300
-300
-300
-300
100
90.5081
81.2744
72.534
64.4785
57.2442
50.9067
45.4862
40.9592
37.2768
34.384
32.2382
30.8219
30.1501
30.2699
31.2565
33.2036
36.2113
40.3703
45.7445
52.3532
60.1555
69.0397
78.8199
89.2423
100
-300
-300
-300
-300
-300
-300
-300
-300
-300
-300
100
89.2286
78.77
68.9106
59.888
51.8754
44.976
39.2254
34.6033
31.0498
28.4852
26.8296
26.0193
26.0193
26.8296
28.4852
31.0498
34.6033
39.2254
44.976
51.8754
59.888
68.9106
78.77
89.2286
100
-300
-300
-300
-300
-300
-300
-300
-300
-300
-300
-300
-300
-300
-300
100
90.9689
82.1777
73.8438
66.143
59.1973
53.0712
47.7759
43.2835
39.545
36.5122
34.1566
32.4813
31.5245
31.3553
32.0667
33.7655
36.5596
40.5441
45.7848
52.3011
60.0513
68.921
78.7197
89.1854
100
-300
-300
-300
-300
-300
-300
-300
-300
-300
-300
100
89.2107
78.7347
68.8589
59.8213
51.7954
44.8846
39.1245
34.4947
30.9353
28.3665
26.7081
25.8965
25.8965
26.7081
28.3665
30.9353
34.4947
39.1245
44.8846
51.7954
59.8213
68.8589
78.7347
89.2107
100
-300
-300
-300
-300
-300
-300
-300
-300
-300
-300
-300
-300
-300
-300
100
91.5769
83.3708
75.5773
68.3521
61.7995
55.9683
50.8572
46.429
42.6315
39.4223
36.7907
34.7695
33.4308
32.8751
33.2194
34.5866
37.094
40.8413
45.8961
52.2787
59.947
68.7853
78.5984
89.1146
100
-300
-300
-300
-300
-300
-300
-300
-300
-300
-300
100
89.1999
78.7134
68.8278
59.7812
51.7474
44.8296
39.0638
34.4294
30.8665
28.2951
26.6351
25.8227
25.8227
26.6351
28.2951
30.8665
34.4294
39.0638
44.8296
51.7474
59.7812
68.8278
78.7134
89.1999
100
-300
-300
-300
-300
-300
-300
-300
-300
-300
-300
-300
-300
-300
-300
100
92.3435
84.8772
77.7706
71.1559
65.1156
59.6788
54.8261
50.504
46.6492
43.2198
40.2268
37.7469
35.9036
34.8417
34.7095
35.6487
37.786
41.2251
46.0352
52.2377
59.7927
68.5854
78.4182
89.0085
100
-300
-300
-300
-300
-300
-300
-300
-300
-300
-300
100
89.1936
78.701
68.8096
59.7577
51.7192
44.7974
39.0282
34.3912
30.8262
28.2533
26.5924
25.7795
25.7795
26.5924
28.2533
30.8262
34.3912
39.0282
44.7974
51.7192
59.7577
68.8096
78.701
89.1936
100
-300
-300
-300
-300
-300
-300
-300
-300
-300
-300
-300
-300
-300
-300
100
93.2757
86.7112
80.4474
74.5896
69.1961
64.2725
59.7748
55.6224
51.7252
48.0267
44.5588
41.4708
38.9672
37.255
36.5206
36.9243
38.6
41.6526
46.1517
52.121
59.5259
68.2591
78.1263
88.8358
100
-300
-300
-300
-300
-300
-300
-300
-300
-300
-300
100
89.19
78.6939
68.7992
59.7443
51.7031
44.7791
39.008
34.3694
30.8032
28.2295
26.568
25.7548
25.7548
26.568
28.2295
30.8032
34.3694
39.008
44.7791
51.7031
59.7443
68.7992
78.6939
89.19
100
-300
-300
-300
-300
-300
-300
-300
-300
-300
-300
-300
-300
-300
-300
100
94.3722
88.8719
83.6093
78.6621
74.0635
69.794
65.7799
61.8992
58.0062
53.9899
49.8852
45.981
42.618
40.0869
38.6129
38.3688
39.4879
42.0711
46.1854
51.8582
59.0659
67.7192
77.6423
88.5455
100
-300
-300
-300
-300
-300
-300
-300
-300
-300
-300
100
89.188
78.69
68.7935
59.7369
51.6942
44.7688
38.9967
34.3572
30.7904
28.2162
26.5544
25.7411
25.7411
26.5544
28.2162
30.7904
34.3572
38.9967
44.7688
51.6942
59.7369
68.7935
78.69
89.188
100
-300
-300
-300
-300
-300
-300
-300
-300
-300
-300
-300
-300
-300
-300
100
95.6219
91.338
87.2282
83.344
79.6964
76.2448
72.8862
69.4456
65.6774
61.3187
56.308
51.2763
46.7992
43.2621
40.9119
39.9139
40.3868
42.4178
46.0672
51.3657
58.3082
66.8412
76.8376
88.046
100
-300
-300
-300
-300
-300
-300
-300
-300
-300
-300
100
89.1869
78.6878
68.7903
59.7328
51.6894
44.7633
38.9906
34.3507
30.7835
28.2091
26.5471
25.7337
25.7337
26.5471
28.2091
30.7835
34.3507
38.9906
44.7633
51.6893
59.7328
68.7903
78.6878
89.1869
100
-300
-300
-300
-300
-300
-300
-300
-300
-300
-300
-300
-300
-300
-300
100
97.0013
94.0643
91.24
88.5575
86.0137
83.5595
81.0792
78.355
75.0029
70.4048
63.9214
57.2618
51.3594
46.6367
43.2993
41.4667
41.2213
42.6251
45.7246
50.5522
57.1259
65.4487
75.4959
87.153
100
-300
-300
-300
-300
-300
-300
-300
-300
-300
-300
100
89.1863
78.6867
68.7887
59.7307
51.6868
44.7604
38.9874
34.3472
30.7798
28.2053
26.5432
25.7298
25.7298
26.5432
28.2053
30.7798
34.3472
38.9874
44.7604
51.6868
59.7307
68.7887
78.6867
89.1863
100
-300
-300
-300
-300
-300
-300
-300
-300
-300
-300
-300
-300
-300
-300
100
98.4756
96.9815
95.5423
94.1706
92.86
91.575
90.23
88.638
86.3615
82.2367
72.6997
63.6162
55.9909
49.9799
45.6141
42.9163
41.9128
42.6308
45.0962
49.3353
55.3838
63.3085
73.2469
85.442
100
-300
-300
-300
-300
-300
-300
-300
-300
-300
-300
100
89.186
78.6861
68.7878
59.7296
51.6855
44.7589
38.9857
34.3454
30.7779
28.2033
26.5412
25.7277
25.7277
26.5412
28.2033
30.7779
34.3454
38.9857
44.7589
51.6855
59.7296
68.7878
78.6861
89.186
100
-300
-300
-300
-300
-300
-300
-300
-300
-300
-300
-300
-300
-300
-300
100
100
100
100
100
100
100
100
100
100
100
81.782
69.4948
60.1746
52.9874
47.6744
44.152
42.3942
42.3941
44.1517
47.6739
52.9866
60.1735
69.4936
81.781
100
100
100
100
100
100
100
100
100
100
100
100
89.1859
78.6858
68.7874
59.729
51.6848
44.7581
38.9849
34.3445
30.777
28.2023
26.5402
25.7267
25.7267
26.5402
28.2023
30.777
34.3445
38.9848
44.7581
51.6848
59.729
68.7874
78.6858
89.1859
100
-300
-300
-300
-300
-300
-300
-300
-300
-300
-300
-300
-300
-300
-300
-300
-300
-300
-300
-300
-300
-300
-300
-300
-300
100
85.4419
73.2465
63.3076
55.3825
49.3335
45.0941
42.6284
41.91
42.9133
45.6109
49.9765
55.9874
63.6127
72.6963
82.2337
86.3586
88.6353
90.2275
91.5727
92.858
94.1689
95.541
96.9806
98.4751
100
100
89.1858
78.6857
68.7872
59.7288
51.6845
44.7577
38.9844
34.3441
30.7765
28.2018
26.5397
25.7262
25.7262
26.5397
28.2018
30.7765
34.344
38.9844
44.7577
51.6844
59.7287
68.7871
78.6857
89.1858
100
-300
-300
-300
-300
-300
-300
-300
-300
-300
-300
-300
-300
-300
-300
-300
-300
-300
-300
-300
-300
-300
-300
-300
-300
100
87.152
75.4939
65.4457
57.122
50.5474
45.7191
42.6189
41.2147
41.4596
43.2919
46.6291
51.3517
57.2541
63.9138
70.3975
74.9959
78.3484
81.0731
83.5539
86.0089
88.5534
91.2368
94.0622
97.0002
100
100
89.1858
78.6856
68.7871
59.7286
51.6843
44.7576
38.9842
34.3438
30.7763
28.2016
26.5395
25.726
25.7259
26.5394
28.2015
30.7762
34.3437
38.9841
44.7574
51.6842
59.7285
68.787
78.6856
89.1857
100
-300
-300
-300
-300
-300
-300
-300
-300
-300
-300
-300
-300
-300
-300
-300
-300
-300
-300
-300
-300
-300
-300
-300
-300
100
88.0438
76.8332
66.8348
58.3
51.3558
46.0558
42.4053
40.3733
39.8996
40.8971
43.247
46.7839
51.2611
56.2929
61.304
65.6633
69.4322
72.8738
76.2335
79.6865
83.3358
87.2219
91.3337
95.6197
100
100
89.1858
78.6856
68.787
59.7286
51.6842
44.7575
38.9841
34.3437
30.7762
28.2015
26.5393
25.7258
25.7258
26.5393
28.2014
30.776
34.3435
38.9839
44.7572
51.684
59.7284
68.7869
78.6854
89.1857
100
-300
-300
-300
-300
-300
-300
-300
-300
-300
-300
-300
-300
-300
-300
-300
-300
-300
-300
-300
-300
-300
-300
-300
-300
100
88.5412
77.6339
67.7069
59.05
51.8391
46.1636
42.047
39.4621
38.3416
38.5847
40.0581
42.5889
45.952
49.8565
53.9619
57.9792
61.8736
65.7561
69.7725
74.0446
78.6464
83.5971
88.8636
94.368
100
100
89.1857
78.6856
68.787
59.7285
51.6842
44.7574
38.9841
34.3437
30.7761
28.2014
26.5392
25.7257
25.7257
26.5391
28.2012
30.7758
34.3433
38.9836
44.757
51.6837
59.7281
68.7866
78.6853
89.1856
100
-300
-300
-300
-300
-300
-300
-300
-300
-300
-300
-300
-300
-300
-300
-300
-300
-300
-300
-300
-300
-300
-300
-300
-300
100
88.8278
78.1106
68.2362
59.4963
52.0855
46.1112
41.608
38.5521
36.8739
36.4684
37.2017
38.9133
41.417
44.5057
47.9747
51.6751
55.5749
59.7306
64.2325
69.1612
74.5605
80.4248
86.6957
93.2678
100
100
89.1857
78.6856
68.787
59.7285
51.6842
44.7574
38.9841
34.3436
30.776
28.2013
26.5391
25.7256
25.7255
26.5389
28.2009
30.7754
34.3429
38.9832
44.7565
51.6832
59.7276
68.7862
78.685
89.1854
100
-300
-300
-300
-300
-300
-300
-300
-300
-300
-300
-300
-300
-300
-300
-300
-300
-300
-300
-300
-300
-300
-300
-300
-300
100
88.9941
78.3898
68.5439
59.7391
52.1736
45.962
41.1445
37.6995
35.5576
34.6153
34.7454
35.8064
37.6498
40.1308
43.126
46.5587
50.4182
54.7463
59.6066
65.0524
71.1033
77.7298
84.8493
92.3294
100
100
89.1857
78.6856
68.787
59.7285
51.6842
44.7574
38.984
34.3436
30.776
28.2012
26.539
25.7253
25.7252
26.5384
28.2004
30.7748
34.3421
38.9823
44.7556
51.6823
59.7268
68.7855
78.6845
89.1852
100
-300
-300
-300
-300
-300
-300
-300
-300
-300
-300
-300
-300
-300
-300
-300
-300
-300
-300
-300
-300
-300
-300
-300
-300
100
89.0891
78.5482
68.7119
59.8525
52.1656
45.7671
40.6991
36.9414
34.4261
33.0533
32.7054
33.2595
34.5984
36.6216
39.257
42.4722
46.2779
50.7168
55.8411
61.6883
68.2594
75.5054
83.3217
91.5519
100
100
89.1857
78.6856
68.787
59.7285
51.6842
44.7574
38.984
34.3435
30.7758
28.201
26.5387
25.7249
25.7246
26.5377
28.1994
30.7736
34.3407
38.9808
44.7539
51.6806
59.7252
68.7842
78.6835
89.1847
100
-300
-300
-300
-300
-300
-300
-300
-300
-300
-300
-300
-300
-300
-300
-300
-300
-300
-300
-300
-300
-300
-300
-300
-300
100
89.1415
78.6333
68.7946
59.8885
52.1063
45.5627
40.2995
36.297
33.4893
31.781
31.0634
31.2298
32.187
33.8657
36.228
39.2711
43.0237
47.5345
52.8525
59.0061
65.9835
73.7202
82.0933
90.9261
100
100
89.1857
78.6856
68.787
59.7285
51.6841
44.7573
38.9839
34.3434
30.7756
28.2007
26.5382
25.7243
25.7237
26.5364
28.1978
30.7716
34.3383
38.978
44.7509
51.6776
59.7224
68.7818
78.6818
89.1837
100
-300
-300
-300
-300
-300
-300
-300
-300
-300
-300
-300
-300
-300
-300
-300
-300
-300
-300
-300
-300
-300
-300
-300
-300
100
89.1684
78.6745
68.8271
59.8819
52.0258
45.3713
39.9593
35.7703
32.7399
30.7767
29.78
29.6555
30.328
31.75
33.9072
36.8172
40.5233
45.0811
50.5399
56.9233
64.211
72.3266
81.1328
90.4362
100
100
89.1857
78.6855
68.787
59.7285
51.6841
44.7572
38.9838
34.3431
30.7753
28.2002
26.5374
25.7231
25.722
26.5342
28.1949
30.768
34.334
38.9732
44.7457
51.6723
59.7174
68.7775
78.6786
89.1821
100
-300
-300
-300
-300
-300
-300
-300
-300
-300
-300
-300
-300
-300
-300
-300
-300
-300
-300
-300
-300
-300
-300
-300
-300
100
89.1803
78.6901
68.8312
59.8539
51.9416
45.2042
39.6817
35.3542
32.1587
30.0069
28.8044
28.4662
28.93
30.1638
32.1694
34.9792
38.6473
43.2357
48.7956
55.3481
62.8673
71.2681
80.4023
90.0634
100
100
89.1857
78.6855
68.787
59.7284
51.684
44.7571
38.9835
34.3428
30.7747
28.1993
26.536
25.7211
25.7193
26.5305
28.19
30.7619
34.3267
38.9648
44.7366
51.6631
59.7087
68.7701
78.6732
89.1792
100
-300
-300
-300
-300
-300
-300
-300
-300
-300
-300
-300
-300
-300
-300
-300
-300
-300
-300
-300
-300
-300
-300
-300
-300
100
89.183
78.6904
68.8193
59.8163
51.862
45.0642
39.4618
35.0344
31.7199
29.4324
28.082
27.5905
27.9046
29.0032
30.8991
33.6351
37.2738
41.8821
47.5133
54.1877
61.8755
70.4856
79.8617
89.7872
100
100
89.1857
78.6855
68.7869
59.7284
51.6839
44.7569
38.9832
34.3422
30.7737
28.1978
26.5338
25.7179
25.7147
26.5243
28.182
30.7518
34.3145
38.9508
44.7214
51.6475
59.6939
68.7574
78.6639
89.1743
100
-300
-300
-300
-300
-300
-300
-300
-300
-300
-300
-300
-300
-300
-300
-300
-300
-300
-300
-300
-300
-300
-300
-300
-300
100
89.1796
78.6806
68.7973
59.7738
51.7886
44.9481
39.2897
34.7927
31.3952
29.0132
27.5596
26.9611
27.1705
28.1742
29.9928
32.6762
36.2929
40.9141
46.5948
53.3551
61.1628
69.9227
79.4723
89.5882
100
100
89.1857
78.6855
68.7869
59.7283
51.6837
44.7566
38.9826
34.3413
30.7723
28.1955
26.5303
25.7128
25.7075
26.5144
28.1689
30.7353
34.2946
38.9278
44.6962
51.6216
59.6693
68.7362
78.6483
89.166
100
-300
-300
-300
-300
-300
-300
-300
-300
-300
-300
-300
-300
-300
-300
-300
-300
-300
-300
-300
-300
-300
-300
-300
-300
100
89.171
78.6621
68.7661
59.7258
51.7183
44.8485
39.1526
34.6094
31.1568
28.7117
27.1889
26.5182
26.6568
27.596
29.3616
32.0086
35.6098
40.2392
45.9537
52.7732
60.6641
69.5283
79.1994
89.4487
100
100
89.1857
78.6854
68.7868
59.7281
51.6834
44.7561
38.9818
34.3398
30.77
28.1919
26.5249
25.7048
25.6961
26.4989
28.1484
30.7092
34.2628
38.8909
44.6556
51.5796
59.629
68.7015
78.6226
89.1523
100
-300
-300
-300
-300
-300
-300
-300
-300
-300
-300
-300
-300
-300
-300
-300
-300
-300
-300
-300
-300
-300
-300
-300
-300
100
89.1563
78.6329
68.7226
59.6675
51.6437
44.7549
39.036
34.4648
30.9785
28.4942
26.9278
26.2111
26.304
27.2011
28.9319
31.5549
35.1456
39.7805
45.5176
52.377
60.3243
69.2594
79.0132
89.3534
100
100
89.1857
78.6854
68.7866
59.7279
51.683
44.7553
38.9805
34.3377
30.7665
28.1865
26.5167
25.6927
25.6789
26.4751
28.1168
30.6688
34.2133
38.833
44.5914
51.5127
59.5645
68.6453
78.5809
89.1301
100
-300
-300
-300
-300
-300
-300
-300
-300
-300
-300
-300
-300
-300
-300
-300
-300
-300
-300
-300
-300
-300
-300
-300
-300
100
89.133
78.5881
68.6596
59.5897
51.5539
44.6543
38.9243
34.3396
30.8367
28.3318
26.7414
25.9983
26.0642
26.9358
28.6452
31.2532
34.8376
39.4764
45.2284
52.1141
60.0987
69.0807
78.8894
89.2901
100
100
89.1856
78.6853
68.7865
59.7275
51.6824
44.7542
38.9787
34.3347
30.7616
28.1787
26.5048
25.675
25.6534
26.4398
28.0694
30.6078
34.1379
38.7441
44.492
51.4083
59.463
68.5563
78.5144
89.0944
100
-300
-300
-300
-300
-300
-300
-300
-300
-300
-300
-300
-300
-300
-300
-300
-300
-300
-300
-300
-300
-300
-300
-300
-300
100
89.0964
78.5192
68.5655
59.4789
51.4339
44.5308
38.8
34.215
30.7099
28.1999
26.6012
25.8469
25.8999
26.7584
28.4564
31.0563
34.6375
39.2793
45.0412
51.944
59.9527
68.9651
78.8093
89.2491
100
100
89.1856
78.6852
68.7862
59.7271
51.6815
44.7528
38.9761
34.3304
30.7546
28.1676
26.4877
25.6496
25.6168
26.3885
28.0003
30.518
34.026
38.6108
44.3413
51.2483
59.3057
68.417
78.4094
89.0378
100
-300
-300
-300
-300
-300
-300
-300
-300
-300
-300
-300
-300
-300
-300
-300
-300
-300
-300
-300
-300
-300
-300
-300
-300
100
89.0391
78.4125
68.4227
59.3154
51.2638
44.3646
38.6442
34.0718
30.5786
28.0776
26.484
25.7311
25.7825
26.6377
28.3318
30.9289
34.5096
39.154
44.9227
51.8366
59.8606
68.8922
78.7587
89.2233
100
100
89.1855
78.685
68.7859
59.7264
51.6804
44.7507
38.9726
34.3245
30.745
28.1524
26.4642
25.6143
25.5654
26.3163
27.9021
30.3892
33.8637
38.4153
44.1177
51.0077
59.066
68.202
78.2456
88.9488
100
-300
-300
-300
-300
-300
-300
-300
-300
-300
-300
-300
-300
-300
-300
-300
-300
-300
-300
-300
-300
-300
-300
-300
-300
100
88.9496
78.2475
68.2055
59.0718
51.0168
44.1313
38.4348
33.8903
30.4242
27.9468
26.3714
25.6315
25.691
26.5507
28.2471
30.8457
34.428
39.0755
44.849
51.7701
59.8037
68.8473
78.7276
89.2073
100
100
89.1854
78.6848
68.7855
59.7256
51.6789
44.7481
38.968
34.3168
30.7323
28.132
26.4326
25.5666
25.4957
26.2173
27.7662
30.2093
33.6345
38.1356
43.7929
50.6525
58.7062
67.8738
77.9916
88.8092
100
-300
-300
-300
-300
-300
-300
-300
-300
-300
-300
-300
-300
-300
-300
-300
-300
-300
-300
-300
-300
-300
-300
-300
-300
100
88.8097
77.9927
67.8758
58.7096
50.6578
43.8007
38.1466
33.6495
30.2291
27.7914
26.2484
25.5329
25.6099
26.4814
28.1855
30.789
34.3752
39.0261
44.8036
51.7296
59.7693
68.8202
78.7089
89.1978
100
100
89.1853
78.6845
68.7849
59.7246
51.677
44.7447
38.9622
34.3068
30.7159
28.1057
26.3915
25.5042
25.4036
26.0856
27.5838
29.9649
33.3191
37.7449
43.3315
50.1381
58.1737
67.3769
77.5988
88.5896
100
-300
-300
-300
-300
-300
-300
-300
-300
-300
-300
-300
-300
-300
-300
-300
-300
-300
-300
-300
-300
-300
-300
-300
-300
100
88.5899
77.5994
67.3781
58.1756
50.141
43.3358
37.751
33.3274
29.9759
27.5977
26.1028
25.4241
25.528
26.4183
28.1351
30.7471
34.339
38.9942
44.7753
51.705
59.7487
68.8041
78.6978
89.1921
100
100
89.1852
78.6842
68.7843
59.7234
51.6747
44.7406
38.9549
34.2945
30.6954
28.0727
26.3396
25.4249
25.2859
25.9158
27.3461
29.6428
32.8974
37.2137
42.6914
49.4074
57.3964
66.6294
76.989
88.2395
100
-300
-300
-300
-300
-300
-300
-300
-300
-300
-300
-300
-300
-300
-300
-300
-300
-300
-300
-300
-300
-300
-300
-300
-300
100
88.2396
76.9893
66.63
57.3975
49.409
42.6938
37.217
32.9019
29.6487
27.3536
25.925
25.2969
25.4377
26.354
28.0885
30.7122
34.3118
38.9721
44.7571
51.6898
59.7364
68.7946
78.6914
89.1889
100
100
89.185
78.6839
68.7835
59.7219
51.672
44.7357
38.9463
34.2797
30.6707
28.0326
26.2763
25.3276
25.1403
25.7039
27.0464
29.2315
32.3508
36.5123
41.8268
48.3925
56.2791
65.5098
76.0325
87.665
100
-300
-300
-300
-300
-300
-300
-300
-300
-300
-300
-300
-300
-300
-300
-300
-300
-300
-300
-300
-300
-300
-300
-300
-300
100
87.6651
76.0327
65.5102
56.2797
48.3933
41.828
36.514
32.3531
29.2346
27.0503
25.7087
25.146
25.3343
26.2839
28.0409
30.6796
34.2888
38.9553
44.7443
51.68
59.7288
68.789
78.6876
89.187
100
100
89.1849
78.6835
68.7827
59.7203
51.669
44.7301
38.9363
34.2625
30.6419
27.9856
26.2016
25.2121
24.9661
25.4482
26.6812
28.724
31.6658
35.6162
40.6944
47.0197
54.7031
63.842
74.5063
86.6732
100
-300
-300
-300
-300
-300
-300
-300
-300
-300
-300
-300
-300
-300
-300
-300
-300
-300
-300
-300
-300
-300
-300
-300
-300
100
86.6732
74.5064
63.8422
54.7033
47.0201
40.6951
35.6171
31.6671
28.7256
26.6832
25.4507
24.969
25.2155
26.2055
27.9899
30.6465
34.2672
38.941
44.7345
51.673
59.7238
68.7855
78.6854
89.1859
100
100
89.1848
78.6831
68.7819
59.7186
51.6657
44.7239
38.9253
34.2433
30.6096
27.9325
26.1167
25.0797
24.7651
25.1508
26.2522
28.1209
30.8396
34.5142
39.2659
45.2264
52.5409
61.3877
72.0211
84.8126
100
-300
-300
-300
-300
-300
-300
-300
-300
-300
-300
-300
-300
-300
-300
-300
-300
-300
-300
-300
-300
-300
-300
-300
-300
100
84.8126
72.0211
61.3877
52.541
45.2266
39.2662
34.5146
30.8402
28.1217
26.2532
25.1521
24.7666
25.0814
26.1186
27.9346
30.6118
34.2457
38.9276
44.7262
51.6677
59.7204
68.7833
78.6841
89.1853
100
100
89.1847
78.6829
68.7812
59.7171
51.6625
44.7176
38.9137
34.2228
30.5746
27.8746
26.0234
24.9336
24.5418
24.8179
25.7678
27.4327
29.8842
33.2177
37.545
42.9917
49.7046
57.89
67.9399
80.8684
100
100
100
100
100
100
100
100
100
100
100
100
100
100
100
100
100
100
100
100
100
100
100
100
100
100
80.8684
67.9399
57.89
49.7047
42.9918
37.5452
33.2179
29.8845
27.4331
25.7683
24.8185
24.5425
24.9344
26.0244
27.8756
30.5757
34.224
38.9148
44.7187
51.6635
59.7179
68.7819
78.6833
89.1849
100
100
89.1848
78.6829
68.781
59.716
51.6597
44.7118
38.9023
34.2021
30.5385
27.8141
25.9253
24.7785
24.3033
24.4599
25.2431
26.6808
28.8295
31.7672
35.5849
40.3794
46.2485
53.2896
61.5871
71.0927
80.8684
84.8126
86.6732
87.665
88.2394
88.5895
88.8089
88.9482
89.0367
89.0924
89.1264
89.1458
89.1546
89.1546
89.1458
89.1264
89.0924
89.0367
88.9482
88.8089
88.5895
88.2394
87.665
86.6732
84.8126
80.8684
71.0928
61.5871
53.2897
46.2485
40.3794
35.585
31.7673
28.8296
26.681
25.2434
24.4602
24.3036
24.7789
25.9257
27.8147
30.5391
34.2027
38.9029
44.7123
51.6602
59.7164
68.7813
78.6831
89.1849
100
100
89.1851
78.6834
68.7814
59.7159
51.6581
44.7072
38.8923
34.1826
30.5035
27.7541
25.8265
24.621
24.059
24.0909
24.6989
25.8959
27.7208
30.2303
33.4887
37.5557
42.4704
48.2262
54.7147
61.5871
67.9399
72.021
74.5063
76.0324
76.9888
77.5985
77.9911
78.2445
78.4074
78.5106
78.574
78.6103
78.6267
78.6267
78.6103
78.574
78.5106
78.4074
78.2445
77.9911
77.5985
76.9888
76.0324
74.5063
72.021
67.9399
61.5871
54.7147
48.2262
42.4704
37.5557
33.4888
30.2303
27.7209
25.896
24.699
24.0911
24.0592
24.6211
25.8267
27.7544
30.5037
34.1829
38.8925
44.7074
51.6583
59.7161
68.7816
78.6835
89.1852
100
100
89.186
78.685
68.7834
59.7178
51.6589
44.7054
38.8853
34.1667
30.4723
27.6984
25.7323
24.4684
23.8201
23.7272
24.1594
25.1141
26.612
28.6882
31.3811
34.7178
38.695
43.2518
48.2262
53.2896
57.89
61.3876
63.842
65.5097
66.6292
67.3766
67.873
68.2005
68.4142
68.5511
68.6359
68.6845
68.7067
68.7067
68.6845
68.6359
68.5511
68.4142
68.2005
67.873
67.3766
66.6292
65.5097
63.842
61.3876
57.89
53.2896
48.2262
43.2518
38.695
34.7178
31.3812
28.6883
26.612
25.1141
24.1594
23.7273
23.8201
24.4685
25.7324
27.6985
30.4724
34.1668
38.8854
44.7055
51.659
59.7178
68.7835
78.6851
89.186
100
100
89.1877
78.6884
68.7882
59.7231
51.664
44.7086
38.8842
34.1574
30.4488
27.6517
25.6491
24.3295
23.5985
23.386
23.6495
24.3718
25.5565
27.2195
29.3777
32.0352
35.1664
38.695
42.4704
46.2485
49.7046
52.5408
54.703
56.279
57.3962
58.1732
58.7053
59.0642
59.3023
59.4568
59.5534
59.6092
59.6346
59.6346
59.6092
59.5534
59.4568
59.3023
59.0642
58.7053
58.1732
57.3962
56.279
54.703
52.5408
49.7046
46.2485
42.4704
38.695
35.1664
32.0352
29.3777
27.2195
25.5565
24.3718
23.6495
23.3861
23.5985
24.3295
25.6492
27.6518
30.4489
34.1574
38.8843
44.7087
51.664
59.7232
68.7882
78.6885
89.1878
100
100
89.1911
78.695
68.7976
59.7347
51.6765
44.7206
38.8932
34.1595
30.4385
27.6205
25.5846
24.2139
23.4068
23.0844
23.1928
23.7019
24.6006
25.8889
27.568
29.6281
32.0352
34.7178
37.5557
40.3794
42.9917
45.2263
47.0196
48.3923
49.4072
50.1376
50.6516
51.0058
51.2447
51.4017
51.5009
51.5585
51.585
51.585
51.5585
51.5009
51.4017
51.2447
51.0058
50.6516
50.1376
49.4072
48.3923
47.0196
45.2263
42.9917
40.3794
37.5557
34.7178
32.0352
29.6281
27.568
25.8889
24.6006
23.7019
23.1928
23.0844
23.4069
24.2139
25.5847
27.6206
30.4386
34.1595
38.8932
44.7206
51.6766
59.7347
68.7976
78.6951
89.1912
100
100
89.1973
78.7071
68.8149
59.7565
51.7016
44.7471
38.9187
34.1804
30.4494
27.6137
25.5488
24.1331
23.2589
22.8392
22.8106
23.1321
23.7805
24.7437
26.0119
27.568
29.3777
31.3811
33.4887
35.5849
37.545
39.2659
40.6944
41.8267
42.6912
43.331
43.7919
44.1158
44.3378
44.4855
44.5796
44.6348
44.6602
44.6602
44.6348
44.5796
44.4855
44.3378
44.1158
43.7919
43.331
42.6912
41.8267
40.6944
39.2659
37.545
35.5849
33.4887
31.3811
29.3777
27.568
26.0119
24.7437
23.7805
23.1321
22.8106
22.8392
23.2589
24.1331
25.5488
27.6137
30.4494
34.1804
38.9187
44.7471
51.7016
59.7565
68.8149
78.7071
89.1973
100
100
89.2079
78.7279
68.8452
59.7951
51.7471
44.7973
38.9709
34.2309
30.4932
27.6436
25.5549
24.1015
23.1703
22.6679
22.5231
22.6858
23.1235
23.8151
24.7437
25.8889
27.2195
28.6882
30.2303
31.7672
33.2177
34.5142
35.6161
36.5122
37.2135
37.7445
38.1347
38.4136
38.6075
38.738
38.822
38.8716
38.8945
38.8945
38.8716