# vtk DataFile Version 2.0
LBE two cylinders
ASCII
DATASET STRUCTURED_POINTS
DIMENSIONS 76 76 1
ASPECT_RATIO 1 1 1
ORIGIN 0 0 0
POINT_DATA 5776
SCALARS temp double 1
LOOKUP_TABLE default
100
100
100
100
100
100
100
100
100
100
100
100
100
100
100
100
100
100
100
100
100
100
100
100
100
100
-300
-300
-300
-300
-300
-300
-300
-300
-300
-300
-300
-300
-300
-300
100
100
100
100
100
100
100
100
100
100
100
100
100
100
100
100
100
100
100
100
100
100
100
100
100
100
-300
-300
-300
-300
-300
-300
-300
-300
-300
-300
100
98.7124
97.4578
96.267
95.1662
94.1757
93.3092
92.5741
91.9719
91.5
91.1535
90.9267
90.8146
90.8146
90.9267
91.1535
91.5
91.9719
92.5741
93.3092
94.1757
95.1662
96.267
97.4578
98.7124
100
-300
-300
-300
-300
-300
-300
-300
-300
-300
-300
-300
-300
-300
-300
100
98.7133
97.4596
96.2696
95.1694
94.1794
93.3134
92.5784
91.9763
91.5044
91.1576
90.9305
90.818
90.8176
90.9292
91.1557
91.5018
91.9732
92.5751
93.31
94.1763
95.1666
96.2673
97.458
98.7125
100
-300
-300
-300
-300
-300
-300
-300
-300
-300
-300
100
97.4574
94.9802
92.6288
90.455
88.4991
86.7882
85.3365
84.1474
83.2157
82.5315
82.0835
81.8622
81.8622
82.0835
82.5315
83.2157
84.1474
85.3365
86.7882
88.4991
90.455
92.6288
94.9802
97.4574
100
-300
-300
-300
-300
-300
-300
-300
-300
-300
-300
-300
-300
-300
-300
100
97.4596
94.9843
92.6347
90.4626
88.508
86.7979
85.3468
84.1578
83.2259
82.5412
82.0925
81.8703
81.8693
82.0895
82.5365
83.2198
84.1506
85.339
86.79
88.5004
90.4559
92.6293
94.9805
97.4576
100
-300
-300
-300
-300
-300
-300
-300
-300
-300
-300
100
96.2653
92.6265
89.1726
85.9797
83.1068
80.5936
78.4614
76.7147
75.3462
74.3412
73.6832
73.3581
73.3581
73.6832
74.3412
75.3462
76.7147
78.4614
80.5936
83.1068
85.9797
89.1726
92.6265
96.2653
100
-300
-300
-300
-300
-300
-300
-300
-300
-300
-300
-300
-300
-300
-300
100
96.2694
92.6345
89.1841
85.9942
83.1237
80.6123
78.481
76.7347
75.3658
74.3599
73.7004
73.3736
73.3717
73.6948
74.3509
75.354
76.7209
78.4661
80.5971
83.1092
85.9814
89.1737
92.6272
96.2656
100
-300
-300
-300
-300
-300
-300
-300
-300
-300
-300
100
95.1615
90.4473
85.9726
81.8361
78.1141
74.8583
72.0959
69.833
68.0601
66.7582
65.9057
65.4845
65.4845
65.9057
66.7582
68.0601
69.833
72.0959
74.8583
78.1141
81.8361
85.9726
90.4473
95.1615
100
-300
-300
-300
-300
-300
-300
-300
-300
-300
-300
-300
-300
-300
-300
100
95.1689
90.4616
85.9933
81.8623
78.1446
74.8919
72.1313
69.869
68.0954
66.7918
65.9368
65.5126
65.5091
65.9267
66.7756
68.0742
69.8441
72.1043
74.8645
78.1185
81.8391
85.9746
90.4484
95.162
100
-300
-300
-300
-300
-300
-300
-300
-300
-300
-300
100
94.1654
88.4806
83.0847
78.0965
73.6083
69.6822
66.3512
63.6226
61.4847
59.9148
58.8868
58.379
58.379
58.8868
59.9148
61.4847
63.6226
66.3512
69.6822
73.6083
78.0965
83.0847
88.4806
94.1654
100
-300
-300
-300
-300
-300
-300
-300
-300
-300
-300
-300
-300
-300
-300
100
94.1782
88.5056
83.1208
78.1422
73.6616
69.741
66.4131
63.6854
61.5465
59.9736
58.9413
58.4281
58.422
58.9235
59.9452
61.5093
63.6418
66.3658
69.693
73.6159
78.1017
83.088
88.4825
94.1663
100
-300
-300
-300
-300
-300
-300
-300
-300
-300
-300
100
93.289
86.7504
80.5441
74.8068
69.6445
65.1288
61.2976
58.1593
55.7004
53.8948
52.7125
52.1284
52.1284
52.7125
53.8948
55.7004
58.1593
61.2976
65.1288
69.6445
74.8068
80.5441
86.7504
93.289
100
-300
-300
-300
-300
-300
-300
-300
-300
-300
-300
-300
-300
-300
-300
100
93.3109
86.7931
80.6057
74.8847
69.7354
65.2291
61.4032
58.2665
55.8058
53.9952
52.8054
52.2122
52.2018
52.775
53.9467
55.7423
58.192
61.3224
65.147
69.6574
74.8155
80.5496
86.7536
93.2905
100
-300
-300
-300
-300
-300
-300
-300
-300
-300
-300
100
92.5375
85.2666
78.3653
71.9855
66.2452
61.224
56.9638
53.4741
50.7401
48.7323
47.4177
46.7683
46.7683
47.4177
48.7323
50.7401
53.4741
56.9638
61.224
66.2452
71.9855
78.3653
85.2666
92.5375
100
-300
-300
-300
-300
-300
-300
-300
-300
-300
-300
-300
-300
-300
-300
100
92.5738
85.3377
78.468
72.1154
66.3968
61.3912
57.1401
53.6532
50.916
48.9
47.573
46.9081
46.8908
47.5221
48.8188
50.8097
53.5286
57.005
61.254
66.2664
71.9997
78.3743
85.2718
92.5398
100
-300
-300
-300
-300
-300
-300
-300
-300
-300
-300
100
91.9091
84.026
76.5436
69.6267
63.4032
57.9592
53.3405
49.5571
46.5929
44.4162
42.991
42.287
42.287
42.991
44.4162
46.5929
49.5571
53.3405
57.9592
63.4032
69.6267
76.5436
84.026
91.9091
100
-300
-300
-300
-300
-300
-300
-300
-300
-300
-300
-300
-300
-300
-300
100
91.9684
84.142
76.7112
69.8387
63.6507
58.2322
53.6285
49.8498
46.8806
44.6905
43.2449
42.5156
42.4872
43.1616
44.5574
46.7064
49.6456
53.4072
58.0078
63.4371
69.6494
76.5579
84.0342
91.9128
100
-300
-300
-300
-300
-300
-300
-300
-300
-300
-300
100
91.3968
83.0147
75.0586
67.7038
61.0863
55.2978
50.3868
46.3641
43.2124
40.898
39.3826
38.634
38.634
39.3826
40.898
43.2124
46.3641
50.3868
55.2978
61.0863
67.7038
75.0586
83.0147
91.3968
100
-300
-300
-300
-300
-300
-300
-300
-300
-300
-300
-300
-300
-300
-300
100
91.4915
83.1999
75.3263
68.0425
61.4819
55.7344
50.8475
46.8324
43.6729
41.337
39.7892
39
38.9544
39.6553
41.1235
43.3933
46.5047
50.4925
55.3744
61.1395
67.739
75.0805
83.0271
91.4024
100
-300
-300
-300
-300
-300
-300
-300
-300
-300
-300
100
90.9896
82.2107
73.878
66.1753
59.2446
53.1823
48.039
43.826
40.5252
38.1014
36.5144
35.7305
35.7305
36.5144
38.1014
40.5252
43.826
48.039
53.1823
59.2446
66.1753
73.878
82.2107
90.9896
100
-300
-300
-300
-300
-300
-300
-300
-300
-300
-300
-300
-300
-300
-300
100
91.1376
82.5003
74.2966
66.7051
59.8637
53.8658
48.7606
44.5599
41.2471
38.7898
37.1519
36.3042
36.2324
36.9412
38.4538
40.8074
44.0447
48.2027
53.3001
59.3258
66.2285
73.9108
82.229
90.9977
100
-300
-300
-300
-300
-300
-300
-300
-300
-300
-300
100
90.6739
81.5875
72.9629
64.9903
57.8169
51.5423
46.2189
41.8584
38.4422
35.9336
34.291
33.4797
33.4797
34.291
35.9336
38.4422
41.8584
46.2189
51.5423
57.8169
64.9903
72.9629
81.5875
90.6739
100
-300
-300
-300
-300
-300
-300
-300
-300
-300
-300
-300
-300
-300
-300
100
90.9004
82.0306
73.6036
65.8016
58.7655
52.5901
47.326
42.9848
39.5505
36.9907
35.2699
34.3603
34.2496
34.9449
36.4726
38.8728
42.191
46.4666
51.7194
57.9378
65.0684
73.0102
81.6135
90.6852
100
-300
-300
-300
-300
-300
-300
-300
-300
-300
-300
100
90.4352
81.1162
72.2708
64.0942
56.7373
50.3022
44.8427
40.3707
36.8672
34.2945
32.61
31.7779
31.7779
32.61
34.2945
36.8672
40.3707
44.8427
50.3022
56.7373
64.0942
72.2708
81.1162
90.4352
100
-300
-300
-300
-300
-300
-300
-300
-300
-300
-300
-300
-300
-300
-300
100
90.7744
81.7801
73.2313
65.3111
58.1608
51.8756
46.5061
42.0642
38.534
35.8846
34.0823
33.1018
32.9343
33.5908
35.1013
37.5099
40.8652
45.2088
50.5618
56.9125
64.2056
72.3369
81.1515
90.4502
100
-300
-300
-300
-300
-300
-300
-300
-300
-300
-300
100
90.2591
80.7685
71.7604
63.4333
55.941
49.3875
43.8276
39.2734
35.7055
33.0855
31.3701
30.5227
30.5227
31.3701
33.0855
35.7055
39.2734
43.8276
49.3875
55.941
63.4333
71.7604
80.7685
90.2591
100
-300
-300
-300
-300
-300
-300
-300
-300
-300
-300
-300
-300
-300
-300
100
90.7567
81.7426
73.1702
65.2205
58.0331
51.7018
46.2761
41.7677
38.1617
35.4291
33.5396
32.4724
32.2238
32.8104
34.2675
36.6439
39.992
44.3559
49.7584
56.1876
63.5869
71.8488
80.8142
90.2779
100
-300
-300
-300
-300
-300
-300
-300
-300
-300
-300
100
90.1324
80.5183
71.393
62.9576
55.368
48.7293
43.0971
38.4838
34.8696
32.2156
30.4779
29.6195
29.6195
30.4779
32.2156
34.8696
38.4838
43.0971
48.7293
55.368
62.9576
71.393
80.5183
90.1324
100
-300
-300
-300
-300
-300
-300
-300
-300
-300
-300
-300
-300
-300
-300
100
90.8471
81.918
73.4199
65.5288
58.3802
52.0644
46.6286
42.084
38.4165
35.6004
33.6104
32.4325
32.0705
32.5489
33.9103
36.2096
39.5041
43.8412
49.2453
55.7048
63.1617
71.5057
80.5734
90.1537
100
-300
-300
-300
-300
-300
-300
-300
-300
-300
-300
100
90.0434
80.3426
71.135
62.6236
54.9655
48.2671
42.5841
37.9293
34.2825
31.6047
29.8514
28.9853
28.9853
29.8514
31.6047
34.2825
37.9293
42.5841
48.2671
54.9655
62.6236
71.135
80.3426
90.0434
100
-300
-300
-300
-300
-300
-300
-300
-300
-300
-300
-300
-300
-300
-300
100
91.0489
82.3126
73.9894
66.2475
59.2152
52.9772
47.5769
43.0235
39.3044
36.3976
34.2852
32.9627
32.445
32.7675
33.9828
36.1542
39.3448
43.6064
48.9653
55.4105
62.8831
71.2697
80.4024
90.064
100
-300
-300
-300
-300
-300
-300
-300
-300
-300
-300
100
89.9824
80.2222
70.9582
62.3946
54.6897
47.9502
42.2326
37.5493
33.8802
31.186
29.422
28.5506
28.5506
29.422
31.186
33.8802
37.5493
42.2326
47.9502
54.6897
62.3946
70.9582
80.2222
89.9824
100
-300
-300
-300
-300
-300
-300
-300
-300
-300
-300
-300
-300
-300
-300
100
91.3682
82.9383
74.8966
67.3997
60.5659
54.4715
49.1537
44.6186
40.8539
37.8426
35.5762
34.0639
33.336
33.4433
34.4522
36.4364
39.4672
43.6011
48.8675
55.2561
62.707
71.1044
80.2752
89.995
100
-300
-300
-300
-300
-300
-300
-300
-300
-300
-300
100
89.9416
80.1416
70.8399
62.2415
54.5052
47.7383
41.9974
37.2951
33.6111
30.906
29.1348
28.2599
28.2599
29.1348
30.906
33.6111
37.2951
41.9974
47.7383
54.5052
62.2415
70.8399
80.1416
89.9416
100
-300
-300
-300
-300
-300
-300
-300
-300
-300
-300
-300
-300
-300
-300
100
91.8127
83.811
76.1651
69.0168
62.4711
56.5926
51.4093
46.9213
43.115
39.9785
37.5157
35.7545
34.7472
34.5662
35.2961
37.0244
39.8319
43.7813
48.9053
55.1951
62.5905
70.9732
80.165
89.9326
100
-300
-300
-300
-300
-300
-300
-300
-300
-300
-300
100
89.9149
80.089
70.7626
62.1414
54.3846
47.5998
41.8438
37.129
33.4353
30.7231
28.9472
28.07
28.07
28.9472
30.7231
33.4353
37.129
41.8438
47.5998
54.3846
62.1414
70.7626
80.089
89.9149
100
-300
-300
-300
-300
-300
-300
-300
-300
-300
-300
-300
-300
-300
-300
100
92.3907
84.9472
77.8202
71.1335
64.9751
59.3944
54.4058
49.9992
46.1557
42.867
40.1522
38.0658
36.692
36.1331
36.4976
37.8902
40.4028
44.1048
49.0329
55.1804
62.4881
70.8362
80.0415
89.8603
100
-300
-300
-300
-300
-300
-300
-300
-300
-300
-300
100
89.8979
80.0554
70.7133
62.0776
54.3078
47.5115
41.7458
37.0231
33.3232
30.6064
28.8276
27.9489
27.9489
28.8276
30.6064
33.3232
37.0231
41.7458
47.5115
54.3078
62.0776
70.7133
80.0554
89.8979
100
-300
-300
-300
-300
-300
-300
-300
-300
-300
-300
-300
-300
-300
-300
100
93.1087
86.3603
79.8835
73.7809
68.1203
62.9319
58.2115
53.9313
50.0594
46.5852
43.5458
41.0353
39.1852
38.1397
38.0378
39.0041
41.1421
44.5276
49.2013
55.1601
62.3475
70.6451
79.8666
89.7568
100
-300
-300
-300
-300
-300
-300
-300
-300
-300
-300
100
89.8873
80.0345
70.6826
62.0378
54.2599
47.4565
41.6847
36.9571
33.2534
30.5337
28.753
27.8734
27.8734
28.753
30.5337
33.2534
36.9571
41.6847
47.4565
54.2599
62.0378
70.6826
80.0345
89.8873
100
-300
-300
-300
-300
-300
-300
-300
-300
-300
-300
-300
-300
-300
-300
100
93.9693
88.0566
82.3665
76.9784
71.9382
67.253
62.8938
58.8047
54.9251
51.2276
47.7656
44.6986
42.2327
40.5703
39.8871
40.3277
42.005
44.9994
49.3551
55.0735
62.1047
70.3374
79.588
89.5913
100
-300
-300
-300
-300
-300
-300
-300
-300
-300
-300
100
89.8809
80.0217
70.6639
62.0136
54.2307
47.4231
41.6476
36.917
33.2109
30.4895
28.7077
27.8275
27.8275
28.7077
30.4895
33.2109
36.917
41.6476
47.4231
54.2307
62.0136
70.6639
80.0217
89.8809
100
-300
-300
-300
-300
-300
-300
-300
-300
-300
-300
-300
-300
-300
-300
100
94.9691
90.0304
85.2637
80.7254
76.4387
72.3869
68.5106
64.7122
60.875
56.9164
52.8884
49.0781
45.817
43.385
41.9956
41.8073
42.9359
45.4616
49.4298
54.8479
61.6784
69.8274
79.128
89.3148
100
-300
-300
-300
-300
-300
-300
-300
-300
-300
-300
100
89.877
80.0142
70.6528
61.9992
54.2134
47.4031
41.6255
36.8931
33.1856
30.4632
28.6807
27.8002
27.8002
28.6807
30.4632
33.1856
36.8931
41.6255
47.4031
54.2134
61.9992
70.6528
80.0142
89.877
100
-300
-300
-300
-300
-300
-300
-300
-300
-300
-300
-300
-300
-300
-300
100
96.0968
92.2604
88.5469
84.9915
81.5982
78.33
75.098
71.7509
68.0744
63.8385
59.0004
54.1629
49.8745
46.5031
44.2834
43.3695
43.8669
45.8472
49.3532
54.399
60.9662
68.9951
78.3637
88.8406
100
-300
-300
-300
-300
-300
-300
-300
-300
-300
-300
100
89.8748
80.0098
70.6463
61.9909
54.2033
47.3916
41.6127
36.8792
33.1709
30.4479
28.665
27.7843
27.7843
28.665
30.4479
33.1709
36.8792
41.6126
47.3916
54.2033
61.9909
70.6463
80.0098
89.8748
100
-300
-300
-300
-300
-300
-300
-300
-300
-300
-300
-300
-300
-300
-300
100
97.332
94.7069
92.1595
89.7081
87.3451
85.0253
82.6455
80.0105
76.7713
72.3601
66.1878
59.8603
54.2583
49.7833
46.6326
44.9198
44.7202
46.0859
49.0514
53.6357
59.8447
67.6722
77.0909
87.9953
100
-300
-300
-300
-300
-300
-300
-300
-300
-300
-300
100
89.8735
80.0073
70.6427
61.9861
54.1976
47.385
41.6054
36.8714
33.1626
30.4392
28.6561
27.7753
27.7753
28.6561
30.4392
33.1626
36.8713
41.6053
47.385
54.1976
61.9861
70.6426
80.0073
89.8735
100
-300
-300
-300
-300
-300
-300
-300
-300
-300
-300
-300
-300
-300
-300
100
98.6454
97.3116
96.015
94.7626
93.5462
92.3329
91.0452
89.5123
87.3302
83.4146
74.4324
65.8727
58.6804
53.0076
48.8888
46.3498
45.417
46.1146
48.4619
52.4766
58.1835
65.6373
74.9614
86.3814
100
-300
-300
-300
-300
-300
-300
-300
-300
-300
-300
100
89.8728
80.0059
70.6406
61.9835
54.1944
47.3813
41.6013
36.867
33.158
30.4344
28.6512
27.7703
27.7703
28.6512
30.4344
33.1579
36.8669
41.6013
47.3813
54.1944
61.9834
70.6406
80.0059
89.8728
100
-300
-300
-300
-300
-300
-300
-300
-300
-300
-300
-300
-300
-300
-300
100
100
100
100
100
100
100
100
100
100
100
82.9428
71.4177
62.659
55.892
50.8809
47.5538
45.8917
45.8914
47.5527
50.8791
55.8896
62.656
71.4145
82.9401
100
100
100
100
100
100
100
100
100
100
100
100
89.8724
80.0051
70.6395
61.982
54.1927
47.3794
41.5991
36.8646
33.1554
30.4318
28.6485
27.7676
27.7676
28.6485
30.4317
33.1554
36.8645
41.599
47.3793
54.1926
61.982
70.6395
80.0051
89.8724
100
-300
-300
-300
-300
-300
-300
-300
-300
-300
-300
-300
-300
-300
-300
-300
-300
-300
-300
-300
-300
-300
-300
-300
-300
100
86.3813
74.9606
65.6355
58.1806
52.4725
48.4568
46.1084
45.41
46.342
48.8805
52.9987
58.6712
65.8635
74.4237
83.4068
87.3229
89.5055
91.0389
92.3272
93.5413
94.7585
96.0118
97.3095
98.6443
100
100
89.8722
80.0047
70.6389
61.9813
54.1917
47.3783
41.5979
36.8633
33.1541
30.4304
28.6471
27.7661
27.7661
28.647
30.4303
33.154
36.8632
41.5978
47.3781
54.1916
61.9811
70.6388
80.0046
89.8722
100
-300
-300
-300
-300
-300
-300
-300
-300
-300
-300
-300
-300
-300
-300
-300
-300
-300
-300
-300
-300
-300
-300
-300
-300
100
87.9931
77.0864
67.6653
59.8355
53.6245
49.0383
46.0711
44.704
44.9026
46.6146
49.7647
54.2393
59.8414
66.1693
72.3424
76.7543
79.9945
82.6308
85.012
87.3336
89.6985
92.1521
94.7019
97.3295
100
100
89.8721
80.0045
70.6386
61.9809
54.1913
47.3778
41.5973
36.8627
33.1534
30.4296
28.6463
27.7653
27.7653
28.6462
30.4295
33.1532
36.8624
41.597
47.3774
54.191
61.9806
70.6384
80.0043
89.872
100
-300
-300
-300
-300
-300
-300
-300
-300
-300
-300
-300
-300
-300
-300
-300
-300
-300
-300
-300
-300
-300
-300
-300
-300
100
88.8358
78.3542
68.981
60.9478
54.3768
49.3276
45.8187
43.8361
43.3369
44.2494
46.4683
49.8392
54.1277
58.9658
63.8048
68.0421
71.7204
75.0698
78.3046
81.5761
84.9732
88.5328
92.2507
96.0919
100
100
89.8721
80.0044
70.6385
61.9807
54.191
47.3775
41.597
36.8623
33.153
30.4292
28.6458
27.7648
27.7648
28.6456
30.4289
33.1526
36.8618
41.5964
47.3769
54.1904
61.9801
70.638
80.0041
89.8719
100
-300
-300
-300
-300
-300
-300
-300
-300
-300
-300
-300
-300
-300
-300
-300
-300
-300
-300
-300
-300
-300
-300
-300
-300
100
89.3059
79.1104
69.8017
61.645
54.8077
49.3837
45.4105
42.8807
41.7489
41.935
43.3228
45.7541
49.0153
52.8265
56.856
60.8171
64.6574
68.46
72.3413
76.399
80.6925
85.2383
90.0131
94.9603
100
100
89.8721
80.0044
70.6384
61.9806
54.1909
47.3773
41.5968
36.8621
33.1527
30.4289
28.6455
27.7645
27.7644
28.6452
30.4284
33.152
36.8612
41.5957
47.3762
54.1898
61.9795
70.6375
80.0037
89.8717
100
-300
-300
-300
-300
-300
-300
-300
-300
-300
-300
-300
-300
-300
-300
-300
-300
-300
-300
-300
-300
-300
-300
-300
-300
100
89.5757
79.5573
70.2923
62.0464
55.0034
49.2748
44.9104
41.909
40.2262
39.7817
40.4624
42.1236
44.5896
47.658
51.1228
54.8245
58.7096
62.8059
67.1738
71.8692
76.9212
82.3222
88.0265
93.9541
100
100
89.872
80.0043
70.6383
61.9805
54.1908
47.3772
41.5967
36.8619
33.1525
30.4287
28.6452
27.7641
27.7639
28.6446
30.4276
33.1511
36.8602
41.5947
47.3751
54.1887
61.9786
70.6367
80.0032
89.8714
100
-300
-300
-300
-300
-300
-300
-300
-300
-300
-300
-300
-300
-300
-300
-300
-300
-300
-300
-300
-300
-300
-300
-300
-300
100
89.7303
79.8144
70.5685
62.2485
55.0411
49.0649
44.3765
40.9791
38.832
37.859
37.9566
39.0002
40.8505
43.3634
46.4075
49.8887
53.7702
58.0624
62.7976
68.0033
73.6838
79.8085
86.3093
93.0829
100
100
89.872
80.0043
70.6383
61.9805
54.1907
47.3771
41.5966
36.8618
33.1523
30.4284
28.6448
27.7635
27.7631
28.6436
30.4265
33.1498
36.8586
41.593
47.3734
54.187
61.977
70.6354
80.0022
89.8709
100
-300
-300
-300
-300
-300
-300
-300
-300
-300
-300
-300
-300
-300
-300
-300
-300
-300
-300
-300
-300
-300
-300
-300
-300
100
89.8163
79.9547
70.709
62.3237
54.9828
48.8064
43.8541
40.1324
37.6046
36.201
35.8295
36.3852
37.7593
39.8497
42.5723
45.8727
49.7319
54.1586
59.1716
64.7812
70.9726
77.6959
84.8625
92.3479
100
100
89.872
80.0043
70.6383
61.9804
54.1907
47.377
41.5964
36.8615
33.152
30.4279
28.6441
27.7626
27.7619
28.6421
30.4246
33.1475
36.856
41.5901
47.3703
54.184
61.9742
70.6331
80.0006
89.8701
100
-300
-300
-300
-300
-300
-300
-300
-300
-300
-300
-300
-300
-300
-300
-300
-300
-300
-300
-300
-300
-300
-300
-300
-300
100
89.8611
80.0239
70.7664
62.3233
54.8739
48.5373
43.374
39.3928
36.5607
34.8147
34.0735
34.2492
35.2572
37.025
39.5005
42.6559
46.4878
51.0083
56.2313
62.1566
68.7558
75.9634
83.6737
91.7432
100
100
89.872
80.0043
70.6382
61.9804
54.1906
47.3769
41.5962
36.8612
33.1514
30.4271
28.643
27.7611
27.7599
28.6395
30.4214
33.1436
36.8516
41.5852
47.3652
54.1789
61.9696
70.6292
79.9977
89.8686
100
-300
-300
-300
-300
-300
-300
-300
-300
-300
-300
-300
-300
-300
-300
-300
-300
-300
-300
-300
-300
-300
-300
-300
-300
100
89.8812
80.0507
70.7753
62.2819
54.7453
48.2824
42.9538
38.7695
35.6998
33.6875
32.6608
32.5452
33.2743
34.7972
37.0837
40.1251
43.9305
48.5173
53.8982
60.0668
66.9854
74.5766
82.7204
91.2578
100
100
89.872
80.0043
70.6382
61.9803
54.1904
47.3766
41.5958
36.8606
33.1506
30.4259
28.6412
27.7586
27.7566
28.6353
30.4161
33.1373
36.8442
41.5771
47.3566
54.1704
61.9617
70.6226
79.9929
89.8661
100
-300
-300
-300
-300
-300
-300
-300
-300
-300
-300
-300
-300
-300
-300
-300
-300
-300
-300
-300
-300
-300
-300
-300
-300
100
89.8866
80.0527
70.7572
62.2212
54.6154
48.0549
42.5993
38.2597
35.0089
32.7942
31.5513
31.2164
31.7361
33.0751
35.2188
38.1724
41.9548
46.5885
52.0868
58.4401
65.6042
73.4926
81.9742
90.8775
100
100
89.872
80.0042
70.6381
61.9801
54.1902
47.3763
41.5952
36.8597
33.1492
30.4239
28.6384
27.7547
27.7514
28.6285
30.4076
33.127
36.8323
41.5639
47.3426
54.1564
61.9487
70.6116
79.985
89.8619
100
-300
-300
-300
-300
-300
-300
-300
-300
-300
-300
-300
-300
-300
-300
-300
-300
-300
-300
-300
-300
-300
-300
-300
-300
100
89.8832
80.0401
70.7243
62.1528
54.4932
47.8587
42.308
37.8526
34.467
32.1023
30.6995
30.2025
30.5677
31.771
33.8087
36.6962
40.4599
45.1268
50.7114
57.2024
64.5513
72.665
81.4039
90.5867
100
100
89.872
80.0041
70.638
61.9799
54.1899
47.3757
41.5944
36.8584
33.1472
30.4209
28.6341
27.7487
27.7433
28.6178
30.3942
33.1107
36.8133
41.5427
47.3201
54.1339
61.9278
70.5939
79.9721
89.8551
100
-300
-300
-300
-300
-300
-300
-300
-300
-300
-300
-300
-300
-300
-300
-300
-300
-300
-300
-300
-300
-300
-300
-300
-300
100
89.8739
80.0178
70.6823
62.0814
54.3805
47.691
42.071
37.5318
34.0491
31.5762
30.0582
29.4444
29.6984
30.8035
32.7644
35.6033
39.3526
44.0428
49.69
56.282
63.7672
72.0478
80.9783
90.3695
100
100
89.8719
80.0041
70.6378
61.9796
54.1894
47.3749
41.593
36.8563
33.1441
30.4163
28.6274
27.7395
27.7308
28.6015
30.3735
33.0855
36.7837
41.5095
47.2847
54.0983
61.8944
70.5656
79.9515
89.8442
100
-300
-300
-300
-300
-300
-300
-300
-300
-300
-300
-300
-300
-300
-300
-300
-300
-300
-300
-300
-300
-300
-300
-300
-300
100
89.8592
79.9868
70.6316
62.0058
54.2734
47.5443
41.8756
37.2782
33.7282
31.1803
29.5823
28.8873
29.0635
30.0998
32.0064
34.8109
38.5497
43.2565
48.9483
55.6128
63.1965
71.5983
80.668
90.2111
100
100
89.8719
80.0039
70.6376
61.9792
54.1887
47.3737
41.5911
36.8533
33.1395
30.4095
28.6177
27.7258
27.7122
28.577
30.3423
33.0472
36.7385
41.4584
47.2299
54.0428
61.8421
70.521
79.9189
89.827
100
-300
-300
-300
-300
-300
-300
-300
-300
-300
-300
-300
-300
-300
-300
-300
-300
-300
-300
-300
-300
-300
-300
-300
-300
100
89.8382
79.9449
70.5683
61.9203
54.1636
47.407
41.7062
37.0712
33.4778
30.8813
29.2309
28.4821
28.6065
29.5966
31.4666
34.2478
37.9797
42.6982
48.4216
55.1372
62.7906
71.2784
80.447
90.0983
100
100
89.8718
80.0037
70.6372
61.9786
54.1876
47.372
41.5884
36.849
33.1329
30.3997
28.6035
27.7059
27.685
28.541
30.2962
32.9902
36.6709
41.3815
47.1466
53.9578
61.7616
70.4519
79.8681
89.8
100
-300
-300
-300
-300
-300
-300
-300
-300
-300
-300
-300
-300
-300
-300
-300
-300
-300
-300
-300
-300
-300
-300
-300
-300
100
89.8081
79.8864
70.4847
61.8148
54.039
47.2644
41.5452
36.8896
33.2724
30.6486
28.9678
28.1869
28.2796
29.241
31.0881
33.8548
37.583
42.3101
48.0555
54.8067
62.5084
71.0558
80.2933
90.0198
100
100
89.8717
80.0035
70.6368
61.9778
54.1862
47.3697
41.5846
36.843
33.1238
30.386
28.5836
27.6777
27.6462
28.4894
30.2296
32.9073
36.5716
41.2676
47.0223
53.8299
61.6394
70.3462
79.7898
89.7583
100
-300
-300
-300
-300
-300
-300
-300
-300
-300
-300
-300
-300
-300
-300
-300
-300
-300
-300
-300
-300
-300
-300
-300
-300
100
89.7639
79.8023
70.3682
61.6746
53.8831
47.0989
41.3733
36.7123
33.0883
30.4551
28.762
27.9666
28.0437
28.9902
30.8251
33.5843
37.3114
42.0453
47.8062
54.5818
62.3165
70.9045
80.1887
89.9664
100
100
89.8715
80.0032
70.6361
61.9767
54.1843
47.3665
41.5795
36.8349
33.1113
30.3673
28.5562
27.6387
27.5923
28.417
30.1356
32.7893
36.429
41.1024
46.8401
53.6404
61.4564
70.1864
79.6706
89.6944
100
-300
-300
-300
-300
-300
-300
-300
-300
-300
-300
-300
-300
-300
-300
-300
-300
-300
-300
-300
-300
-300
-300
-300
-300
100
89.6981
79.6788
70.2007
61.479
53.6744
46.8887
41.1691
36.5174
32.9028
30.2768
28.5875
27.7925
27.8673
28.8101
30.6415
33.399
37.1276
41.8675
47.6395
54.4318
62.1887
70.8038
80.1192
89.9309
100
100
89.8714
80.0027
70.6353
61.9752
54.1818
47.3624
41.5727
36.8242
33.0947
30.3422
28.5194
27.586
27.519
28.318
30.0059
32.625
36.2284
40.8674
46.5778
53.364
61.1858
69.9471
79.4901
89.5969
100
-300
-300
-300
-300
-300
-300
-300
-300
-300
-300
-300
-300
-300
-300
-300
-300
-300
-300
-300
-300
-300
-300
-300
-300
100
89.5993
79.4953
69.9561
61.2
53.3851
46.6078
40.9086
36.2828
32.6947
30.0924
28.4224
27.6415
27.7259
28.6747
30.51
33.2707
37.0033
41.7491
47.5296
54.3335
62.1052
70.7381
80.0739
89.9077
100
100
89.8711
80.0022
70.6343
61.9734
54.1787
47.3571
41.5641
36.8105
33.0733
30.3098
28.4714
27.5169
27.4221
28.186
29.8314
32.4017
35.9525
40.5399
46.2068
52.9668
60.7904
69.5914
79.2178
89.4482
100
-300
-300
-300
-300
-300
-300
-300
-300
-300
-300
-300
-300
-300
-300
-300
-300
-300
-300
-300
-300
-300
-300
-300
-300
100
89.4497
79.221
69.597
60.7991
52.9797
46.225
40.5648
35.9852
32.4435
29.8833
28.2486
27.4955
27.6006
28.5644
30.4102
33.1787
36.9178
41.6698
47.4573
54.2696
62.0514
70.696
80.0449
89.893
100
100
89.8708
80.0015
70.6331
61.9711
54.1748
47.3505
41.5533
36.7932
33.0464
30.2687
28.4104
27.4284
27.2973
28.0145
29.6025
32.1054
35.5817
40.0933
45.692
52.4049
60.219
69.0658
78.8065
89.2199
100
-300
-300
-300
-300
-300
-300
-300
-300
-300
-300
-300
-300
-300
-300
-300
-300
-300
-300
-300
-300
-300
-300
-300
-300
100
89.2208
78.8085
69.0692
60.2242
52.4125
45.7028
40.108
35.601
32.13
29.6329
28.0512
27.3403
27.4775
28.4649
30.3276
33.1082
36.8562
41.6154
47.4094
54.2282
62.0169
70.6693
80.0266
89.8837
100
100
89.8705
80.0008
70.6316
61.9685
54.1701
47.3427
41.5403
36.7723
33.0135
30.2183
28.335
27.3185
27.1408
27.7977
29.3102
31.7226
35.0959
39.4981
44.9922
51.6229
59.4019
68.2911
78.1814
88.8635
100
-300
-300
-300
-300
-300
-300
-300
-300
-300
-300
-300
-300
-300
-300
-300
-300
-300
-300
-300
-300
-300
-300
-300
-300
100
88.864
78.1826
68.2931
59.4049
51.6273
44.9985
39.5066
35.1071
31.7368
29.3277
27.8188
27.1655
27.3466
28.3663
30.2521
33.049
36.8085
41.576
47.3765
54.2009
61.9948
70.6524
80.0152
89.8779
100
100
89.8702
79.9999
70.6299
61.9654
54.1648
47.3335
41.5251
36.7477
32.9745
30.1583
28.2446
27.1857
26.9505
27.5317
28.9478
31.242
34.4767
38.7253
44.0628
50.5548
58.2471
67.1509
77.2181
88.2891
100
-300
-300
-300
-300
-300
-300
-300
-300
-300
-300
-300
-300
-300
-300
-300
-300
-300
-300
-300
-300
-300
-300
-300
-300
100
88.2895
77.2188
67.152
58.2488
50.5574
44.0663
38.7301
34.4829
31.25
28.9576
27.5435
26.9644
27.2015
28.2622
30.1773
32.9945
36.768
41.5452
47.3525
54.1821
61.9803
70.6417
80.0081
89.8743
100
100
89.8698
79.9991
70.6282
61.9622
54.1589
47.3233
41.5079
36.7196
32.9298
30.0889
28.1395
27.0302
26.726
27.2151
28.512
30.6568
33.7111
37.7512
42.8619
49.1299
56.6406
65.476
75.7028
87.3122
100
-300
-300
-300
-300
-300
-300
-300
-300
-300
-300
-300
-300
-300
-300
-300
-300
-300
-300
-300
-300
-300
-300
-300
-300
100
87.3124
75.7032
65.4766
56.6416
49.1313
42.8638
37.7538
33.7145
30.6612
28.5174
27.2216
26.7337
27.0389
28.1491
30.0993
32.9408
36.7308
41.519
47.3338
54.1684
61.9703
70.6346
80.0036
89.8721
100
100
89.8695
79.9983
70.6265
61.9588
54.1527
47.3123
41.4892
36.6887
32.8802
30.0113
28.0212
26.854
26.4697
26.8506
28.0053
29.9682
32.7965
36.5651
41.362
47.2873
54.4595
63.0373
73.2624
85.5004
100
-300
-300
-300
-300
-300
-300
-300
-300
-300
-300
-300
-300
-300
-300
-300
-300
-300
-300
-300
-300
-300
-300
-300
-300
100
85.5005
73.2626
63.0376
54.46
47.288
41.363
36.5665
32.7984
29.9706
28.0082
26.8541
26.4738
26.8587
28.0264
30.0169
32.8862
36.6947
41.4952
47.318
54.1579
61.9633
70.63
80.0007
89.8708
100
100
89.8694
79.9978
70.6252
61.9559
54.1468
47.3014
41.47
36.6562
32.8274
29.9277
27.8926
26.6611
26.1869
26.4453
27.4368
29.1874
31.7456
35.1783
39.5666
45.0062
51.618
59.587
69.2852
81.6899
100
100
100
100
100
100
100
100
100
100
100
100
100
100
100
100
100
100
100
100
100
100
100
100
100
100
81.6899
69.2853
59.5872
51.6183
45.0067
39.5672
35.179
31.7466
29.1887
27.4384
26.4472
26.1891
26.6636
27.8954
29.9307
32.8305
36.6594
41.4731
47.3044
54.1496
61.9582
70.627
79.999
89.87
100
100
89.8695
79.9978
70.6247
61.954
54.142
47.2915
41.4515
36.6239
32.7736
29.8414
27.7583
26.4577
25.8864
26.0112
26.8231
28.3368
30.5886
33.6308
37.5268
42.3467
48.1655
55.0642
63.1193
72.2894
81.6899
85.5003
87.3122
88.2891
88.8633
89.2196
89.4476
89.5958
89.6924
89.7548
89.794
89.8168
89.8273
89.8273
89.8168
89.794
89.7548
89.6924
89.5958
89.4476
89.2196
88.8633
88.2891
87.3122
85.5003
81.6899
72.2894
63.1193
55.0643
48.1657
42.3469
37.5271
33.6312
30.5891
28.3375
26.8239
26.0122
25.8875
26.459
27.7597
29.8429
32.7752
36.6256
41.4532
47.293
54.1435
61.9552
70.6256
79.9985
89.8698
100
100
89.8702
79.999
70.6258
61.9541
54.1397
47.2843
41.4359
36.5944
32.7222
29.7567
27.6241
26.252
25.5795
25.5645
26.1869
27.4488
29.3715
31.9894
35.3425
39.4674
44.3843
50.075
56.4305
63.1193
69.2851
73.2623
75.7027
77.2179
78.1811
78.8059
79.2166
79.488
79.6668
79.7832
79.8567
79.8996
79.9193
79.9193
79.8996
79.8567
79.7832
79.6668
79.488
79.2166
78.8059
78.1811
77.2179
75.7027
73.2623
69.2852
63.1193
56.4306
50.075
44.3844
39.4675
35.3426
31.9896
29.3718
27.4492
26.1873
25.565
25.5801
26.2527
27.6248
29.7575
32.723
36.5952
41.4367
47.2851
54.1404
61.9547
70.6262
79.9993
89.8704
100
100
89.8719
80.0021
70.6297
61.9579
54.1418
47.2823
41.4261
36.5713
32.6777
29.6793
27.4976
26.054
25.28
25.1242
25.5552
26.5619
28.1499
30.3353
33.1355
36.5581
40.584
45.1433
50.0749
55.0642
59.587
63.0372
65.4758
67.1506
68.2907
69.0649
69.5898
69.9441
70.1812
70.3371
70.4362
70.4943
70.5212
70.5212
70.4943
70.4362
70.3371
70.1812
69.9441
69.5898
69.0649
68.2907
67.1506
65.4758
63.0372
59.587
55.0642
50.075
45.1433
40.584
36.5582
33.1356
30.3354
28.15
26.562
25.5554
25.1244
25.2803
26.0543
27.4979
29.6797
32.6781
36.5717
41.4265
47.2827
54.1422
61.9582
70.6299
80.0022
89.872
100
100
89.8752
80.0084
70.6384
61.9679
54.1515
47.2892
41.4265
36.5597
32.6463
29.6166
27.3878
25.8754
25.0035
24.7113
24.9568
25.7161
26.9803
28.749
31.0214
33.785
37.0006
40.584
44.3843
48.1655
51.618
54.4594
56.6405
58.2468
59.4013
60.2179
60.7885
61.1823
61.4501
61.6285
61.7428
61.8104
61.8416
61.8416
61.8104
61.7428
61.6285
61.4501
61.1823
60.7885
60.2179
59.4013
58.2468
56.6405
54.4594
51.618
48.1655
44.3843
40.584
37.0006
33.7851
31.0215
28.749
26.9803
25.7161
24.9569
24.7114
25.0036
25.8755
27.388
29.6168
32.6465
36.5599
41.4267
47.2894
54.1517
61.9681
70.6385
80.0085
89.8752
100
100
89.8811
80.02
70.6549
61.9881
54.1736
47.3107
41.4436
36.567
32.6361
29.5782
27.3061
25.7299
24.7667
24.3476
24.4202
24.9495
25.914
27.2999
29.0935
31.2704
33.785
36.5581
39.4674
42.3467
45.0062
47.2872
49.1297
50.5545
51.6223
52.4037
52.9647
53.3602
53.6336
53.818
53.9374
54.0084
54.0414
54.0414
54.0084
53.9374
53.818
53.6336
53.3602
52.9647
52.4037
51.6223
50.5545
49.1297
47.2872
45.0062
42.3467
39.4674
36.5581
33.785
31.2704
29.0935
27.2999
25.914
24.9495
24.4203
24.3476
24.7668
25.7299
27.3062
29.5783
32.6362
36.5671
41.4436
47.3108
54.1737
61.9882
70.6549
80.02
89.8812
100
100
89.8913
80.0398
70.6836
62.0243
54.2152
47.3549
41.4866
36.6035
32.6587
29.5767
27.2666
25.6336
24.5887
24.0554
23.973
24.2966
24.9944
26.0427
27.4189
29.0935
31.0214
33.1355
35.3425
37.5268
39.5666
41.3619
42.8617
44.0625
44.9916
45.6908
46.2046
46.5739
46.8332
47.0103
47.126
47.1953
47.2276
47.2276
47.1953
47.126
47.0103
46.8332
46.5739
46.2046
45.6908
44.9916
44.0625
42.8617
41.3619
39.5666
37.5268
35.3425
33.1355
31.0214
29.0935
27.419
26.0427
24.9944
24.2966
23.973
24.0555
24.5887
25.6336
27.2666
29.5767
32.6587
36.6036
41.4866
47.355
54.2153
62.0243
70.6836
80.0399
89.8913
100
100
89.9079
80.0725
70.7311
62.085
54.2867
47.4339
41.569
36.6839
32.73
29.6293
27.2877
25.6064
24.4911
23.8591
23.6425
23.7884
24.2573
25.018
26.0427
27.2999
28.749
30.3353
31.9894
33.6307
35.1783
36.565
37.751
38.725
39.4975
40.0922
40.5379
40.8637
41.0958
41.2561
41.3618
41.4256