# vtk DataFile Version 2.0
LBE two cylinders
ASCII
DATASET STRUCTURED_POINTS
DIMENSIONS 76 76 1
ASPECT_RATIO 1 1 1
ORIGIN 0 0 0
POINT_DATA 5776
SCALARS temp double 1
LOOKUP_TABLE default
100
100
100
100
100
100
100
100
100
100
100
100
100
100
100
100
100
100
100
100
100
100
100
100
100
100
-300
-300
-300
-300
-300
-300
-300
-300
-300
-300
-300
-300
-300
-300
100
100
100
100
100
100
100
100
100
100
100
100
100
100
100
100
100
100
100
100
100
100
100
100
100
100
-300
-300
-300
-300
-300
-300
-300
-300
-300
-300
100
98.1465
96.3605
94.7025
93.2192
91.9407
90.8791
90.0305
89.3789
88.9009
88.5711
88.3659
88.2681
88.2681
88.3659
88.5711
88.9009
89.3789
90.0305
90.8791
91.9407
93.2192
94.7025
96.3605
98.1465
100
-300
-300
-300
-300
-300
-300
-300
-300
-300
-300
-300
-300
-300
-300
100
98.1465
96.3607
94.7026
93.2194
91.9409
90.8793
90.0307
89.3791
88.9012
88.5713
88.3661
88.2682
88.2682
88.3661
88.5711
88.901
89.3789
90.0305
90.8791
91.9407
93.2192
94.7025
96.3605
98.1465
100
-300
-300
-300
-300
-300
-300
-300
-300
-300
-300
100
96.3605
92.8537
89.5981
86.6856
84.1752
82.0907
80.4245
79.1451
78.2067
77.559
77.1563
76.9641
76.9641
77.1563
77.559
78.2067
79.1451
80.4245
82.0907
84.1752
86.6856
89.5981
92.8537
96.3605
100
-300
-300
-300
-300
-300
-300
-300
-300
-300
-300
-300
-300
-300
-300
100
96.3606
92.854
89.5985
86.6862
84.1759
82.0914
80.4252
79.1458
78.2073
77.5596
77.1568
76.9645
76.9645
77.1566
77.5592
78.2068
79.1452
80.4246
82.0907
84.1753
86.6856
89.5981
92.8537
96.3605
100
-300
-300
-300
-300
-300
-300
-300
-300
-300
-300
100
94.7023
89.5978
84.8588
80.6194
76.9653
73.9312
71.5059
69.6437
68.2778
67.3352
66.749
66.4693
66.4693
66.749
67.3352
68.2778
69.6437
71.5059
73.9312
76.9653
80.6194
84.8588
89.5978
94.7023
100
-300
-300
-300
-300
-300
-300
-300
-300
-300
-300
-300
-300
-300
-300
100
94.7026
89.5985
84.8598
80.6207
76.9668
73.9328
71.5076
69.6453
68.2794
67.3366
66.7503
66.4704
66.4702
66.7497
67.3357
68.2783
69.644
71.5061
73.9313
76.9654
80.6195
84.8588
89.5978
94.7023
100
-300
-300
-300
-300
-300
-300
-300
-300
-300
-300
100
93.2186
86.6845
80.6184
75.1919
70.5145
66.6308
63.5265
61.143
59.3948
58.1882
57.438
57.08
57.08
57.438
58.1882
59.3948
61.143
63.5265
66.6308
70.5145
75.1919
80.6184
86.6845
93.2186
100
-300
-300
-300
-300
-300
-300
-300
-300
-300
-300
-300
-300
-300
-300
100
93.2194
86.6861
80.6207
75.1947
70.5178
66.6343
63.5301
61.1466
59.3982
58.1914
57.4408
57.0824
57.082
57.4396
58.1895
59.3957
61.1436
63.527
66.6311
70.5147
75.192
80.6184
86.6845
93.2186
100
-300
-300
-300
-300
-300
-300
-300
-300
-300
-300
100
91.9391
84.1723
76.9617
70.5115
64.9519
60.3356
56.6459
53.8129
51.7351
50.3012
49.4096
48.9841
48.9841
49.4096
50.3012
51.7351
53.8129
56.6459
60.3356
64.9519
70.5115
76.9617
84.1723
91.9391
100
-300
-300
-300
-300
-300
-300
-300
-300
-300
-300
-300
-300
-300
-300
100
91.9408
84.1756
76.9665
70.5175
64.9588
60.3431
56.6536
53.8206
51.7424
50.3079
49.4155
48.9892
48.9884
49.413
50.3038
51.7371
53.8143
56.6469
60.3362
64.9522
70.5117
76.9618
84.1723
91.9391
100
-300
-300
-300
-300
-300
-300
-300
-300
-300
-300
100
90.8755
82.0839
73.922
66.6209
60.3279
55.1029
50.9267
47.7203
45.3686
43.7457
42.7367
42.2551
42.2551
42.7367
43.7457
45.3686
47.7203
50.9267
55.1029
60.3279
66.6209
73.922
82.0839
90.8755
100
-300
-300
-300
-300
-300
-300
-300
-300
-300
-300
-300
-300
-300
-300
100
90.8791
82.0909
73.932
66.6334
60.3423
55.1184
50.9427
47.7361
45.3837
43.7596
42.749
42.2657
42.2639
42.7437
43.7512
45.3727
47.7232
50.9287
55.1042
60.3287
66.6213
73.9222
82.084
90.8755
100
-300
-300
-300
-300
-300
-300
-300
-300
-300
-300
100
90.023
80.4101
71.4857
63.5027
56.6221
50.9092
46.3433
42.8377
40.2667
38.4924
37.3893
36.8629
36.8629
37.3893
38.4924
40.2667
42.8377
46.3433
50.9092
56.6221
63.5027
71.4857
80.4101
90.023
100
-300
-300
-300
-300
-300
-300
-300
-300
-300
-300
-300
-300
-300
-300
100
90.0302
80.4241
71.5058
63.5278
56.6509
50.9404
46.3754
42.8695
40.297
38.5203
37.4141
36.8842
36.8806
37.4035
38.5034
40.2749
42.8435
46.3472
50.9118
56.6236
63.5035
71.4861
80.4102
90.023
100
-300
-300
-300
-300
-300
-300
-300
-300
-300
-300
100
89.364
79.1163
69.6027
61.0926
53.7578
47.668
42.8009
39.0642
36.3237
34.4326
33.2568
32.6958
32.6958
33.2568
34.4326
36.3237
39.0642
42.8009
47.668
53.7578
61.0926
69.6027
79.1163
89.364
100
-300
-300
-300
-300
-300
-300
-300
-300
-300
-300
-300
-300
-300
-300
100
89.378
79.1435
69.6417
61.1414
53.814
47.7288
42.8636
39.1263
36.383
34.4872
33.3053
32.7375
32.7304
33.2846
34.4541
36.3397
39.0756
42.8086
47.673
53.7608
61.0941
69.6034
79.1165
89.3641
100
-300
-300
-300
-300
-300
-300
-300
-300
-300
-300
100
88.8727
78.1515
68.1986
59.2955
51.6223
45.2515
40.1599
36.2509
33.3842
31.4061
30.1762
29.5893
29.5893
30.1762
31.4061
33.3842
36.2509
40.1599
45.2515
51.6223
59.2955
68.1986
78.1515
88.8727
100
-300
-300
-300
-300
-300
-300
-300
-300
-300
-300
-300
-300
-300
-300
100
88.8991
78.203
68.2723
59.3878
51.7285
45.3666
40.2787
36.3687
33.4966
31.5096
30.2683
29.6685
29.6551
30.2289
31.4468
33.4145
36.2724
40.1744
45.2607
51.6276
59.2983
68.1997
78.1519
88.8727
100
-300
-300
-300
-300
-300
-300
-300
-300
-300
-300
100
88.5192
77.4574
67.1883
58.0026
50.0858
43.5129
38.2599
34.2271
31.2696
29.2289
27.9601
27.3547
27.3547
27.9601
29.2289
31.2696
34.2271
38.2599
43.5129
50.0858
58.0026
67.1883
77.4574
88.5192
100
-300
-300
-300
-300
-300
-300
-300
-300
-300
-300
-300
-300
-300
-300
100
88.5676
77.5518
67.3236
58.172
50.2808
43.7244
38.4785
34.4438
31.4766
29.4196
28.1299
27.5007
27.476
28.0573
29.3039
31.3253
34.2665
38.2863
43.5295
50.0953
58.0073
67.1901
77.4578
88.5191
100
-300
-300
-300
-300
-300
-300
-300
-300
-300
-300
100
88.2736
76.9753
66.4866
57.1046
49.0187
42.3055
36.9404
32.8217
29.8013
27.7171
26.4213
25.8031
25.8031
26.4213
27.7171
29.8013
32.8217
36.9404
42.3055
49.0187
57.1046
66.4866
76.9753
88.2736
100
-300
-300
-300
-300
-300
-300
-300
-300
-300
-300
-300
-300
-300
-300
100
88.3599
77.1433
66.7276
57.4064
49.3664
42.6829
37.3308
33.2091
30.1715
28.0584
26.7253
26.0645
26.0202
26.5952
27.8512
29.9005
32.8917
36.9871
42.3345
49.0349
57.1123
66.4892
76.9755
88.2733
100
-300
-300
-300
-300
-300
-300
-300
-300
-300
-300
100
88.1089
76.6519
66.016
56.5024
48.303
41.4958
36.0556
31.8793
28.8167
26.7034
25.3896
24.7627
24.7627
25.3896
26.7034
28.8167
31.8793
36.0556
41.4958
48.303
56.5024
66.016
76.6519
88.1089
100
-300
-300
-300
-300
-300
-300
-300
-300
-300
-300
-300
-300
-300
-300
100
88.2579
76.9421
66.4325
57.0242
48.9049
42.1495
36.7325
32.5516
29.4597
27.2966
25.918
25.2172
25.14
25.6915
26.9359
28.9883
31.9999
36.1355
41.5446
48.3295
56.5141
66.0192
76.6513
88.1077
100
-300
-300
-300
-300
-300
-300
-300
-300
-300
-300
100
88.0022
76.4424
65.7111
56.1122
47.8394
40.9713
35.4825
31.2688
28.1789
26.0468
24.7213
24.0889
24.0889
24.7213
26.0468
28.1789
31.2688
35.4825
40.9713
47.8394
56.1122
65.7111
76.4424
88.0022
100
-300
-300
-300
-300
-300
-300
-300
-300
-300
-300
-300
-300
-300
-300
100
88.2518
76.9288
66.4095
56.9879
48.8503
42.0704
36.6217
32.4017
29.2633
27.0479
25.6133
24.856
24.7253
25.2301
26.4378
28.4666
31.47
35.6144
41.0505
47.8809
56.1288
65.7136
76.4392
87.9991
100
-300
-300
-300
-300
-300
-300
-300
-300
-300
-300
100
87.9354
76.3112
65.5202
55.8679
47.5492
40.6429
35.1237
30.8867
27.7797
25.6359
24.3031
23.6671
23.6671
24.3031
25.6359
27.7797
30.8867
35.1237
40.6429
47.5492
55.8679
65.5202
76.3112
87.9354
100
-300
-300
-300
-300
-300
-300
-300
-300
-300
-300
-300
-300
-300
-300
100
88.3412
77.1022
66.6567
57.2941
49.1971
42.4369
36.9854
32.7401
29.5557
27.2766
25.7654
24.9244
24.7094
25.1351
26.2738
28.2473
31.2117
35.3345
40.7668
47.6108
55.8889
65.5188
76.3019
87.9281
100
-300
-300
-300
-300
-300
-300
-300
-300
-300
-300
100
87.8949
76.2318
65.4046
55.72
47.3735
40.4441
34.9065
30.6554
27.5381
25.3872
24.0499
23.4119
23.4119
24.0499
25.3872
27.5381
30.6554
34.9065
40.4441
47.3735
55.72
65.4046
76.2318
87.8949
100
-300
-300
-300
-300
-300
-300
-300
-300
-300
-300
-300
-300
-300
-300
100
88.535
77.48
67.1992
57.9742
49.9811
43.2867
37.8607
33.6005
30.3634
27.9992
26.3784
25.4131
25.069
25.3702
26.3965
28.2747
31.1636
35.2318
40.6301
47.4598
55.7419
65.3921
76.209
87.879
100
-300
-300
-300
-300
-300
-300
-300
-300
-300
-300
100
87.8712
76.1853
65.337
55.6334
47.2706
40.3278
34.7794
30.52
27.3967
25.2416
23.9018
23.2625
23.2625
23.9018
25.2416
27.3967
30.52
34.7794
40.3278
47.2706
55.6334
65.337
76.1853
87.8712
100
-300
-300
-300
-300
-300
-300
-300
-300
-300
-300
-300
-300
-300
-300
100
88.8509
78.0966
68.087
59.0914
51.2763
44.7014
39.3325
35.0664
31.7639
29.2824
27.5042
26.3563
25.8204
25.9348
26.7904
28.521
31.2889
35.2634
40.5948
47.3826
55.646
65.2985
76.1354
87.8386
100
-300
-300
-300
-300
-300
-300
-300
-300
-300
-300
100
87.8578
76.159
65.2986
55.5844
47.2123
40.2618
34.7073
30.4434
27.3166
25.1591
23.8179
23.1779
23.1779
23.8179
25.1591
27.3166
30.4434
34.7073
40.2618
47.2123
55.5844
65.2986
76.159
87.8578
100
-300
-300
-300
-300
-300
-300
-300
-300
-300
-300
-300
-300
-300
-300
100
89.3129
78.9991
69.3888
60.734
53.1872
46.7979
41.5255
37.2648
33.8796
31.2368
29.2355
27.8253
27.0121
26.8559
27.4636
28.9789
31.5681
35.4013
40.6269
47.3425
55.5652
65.2061
76.057
87.794
100
-300
-300
-300
-300
-300
-300
-300
-300
-300
-300
100
87.8504
76.1445
65.2776
55.5575
47.1804
40.2257
34.6679
30.4013
27.2727
25.1139
23.7719
23.1315
23.1315
23.7719
25.1139
27.2727
30.4013
34.6679
40.2257
47.1804
55.5575
65.2776
76.1445
87.8504
100
-300
-300
-300
-300
-300
-300
-300
-300
-300
-300
-300
-300
-300
-300
100
89.948
80.2411
71.1834
63.0038
55.8363
49.7163
44.5928
40.3552
36.8677
34.0076
31.6964
29.9173
28.7136
28.1773
28.4381
29.6524
31.9913
35.6242
40.6971
47.305
55.4629
65.0806
75.9468
87.73
100
-300
-300
-300
-300
-300
-300
-300
-300
-300
-300
100
87.8465
76.1368
65.2664
55.5432
47.1634
40.2065
34.6469
30.379
27.2494
25.0899
23.7474
23.1069
23.1069
23.7474
25.0899
27.2494
30.379
34.6469
40.2065
47.1634
55.5432
65.2664
76.1368
87.8465
100
-300
-300
-300
-300
-300
-300
-300
-300
-300
-300
-300
-300
-300
-300
100
90.782
81.8739
73.5467
66.0011
59.3474
53.6022
48.6993
44.5158
40.9099
37.765
35.031
32.7429
31.0015
29.9463
29.7377
30.547
32.5491
35.9109
40.7741
47.2307
55.2953
64.8788
75.769
87.6261
100
-300
-300
-300
-300
-300
-300
-300
-300
-300
-300
100
87.8445
76.1329
65.2607
55.5358
47.1547
40.1966
34.6361
30.3675
27.2374
25.0775
23.7348
23.0942
23.0942
23.7348
25.0775
27.2374
30.3675
34.6361
40.1966
47.1547
55.5358
65.2607
76.1329
87.8445
100
-300
-300
-300
-300
-300
-300
-300
-300
-300
-300
-300
-300
-300
-300
100
91.8343
83.9362
76.5379
69.8064
63.8246
58.5859
54.0025
49.929
46.2018
42.6959
39.3914
36.4088
33.9413
32.1967
31.3735
31.6578
33.2242
36.2331
40.8187
47.07
55.0043
64.5398
75.4702
87.4501
100
-300
-300
-300
-300
-300
-300
-300
-300
-300
-300
100
87.8435
76.1309
65.2578
55.5321
47.1503
40.1917
34.6307
30.3618
27.2314
25.0714
23.7286
23.0879
23.0879
23.7286
25.0714
27.2314
30.3618
34.6307
40.1917
47.1503
55.5321
65.2578
76.1309
87.8435
100
-300
-300
-300
-300
-300
-300
-300
-300
-300
-300
-300
-300
-300
-300
100
93.112
86.4436
80.183
74.4601
69.3285
64.7566
60.6299
56.7662
52.9502
49.0064
44.9274
40.9968
37.5633
34.9279
33.329
32.9595
33.9847
36.5505
40.7798
46.7578
54.5102
63.9741
74.9662
87.1477
100
-300
-300
-300
-300
-300
-300
-300
-300
-300
-300
100
87.843
76.13
65.2564
55.5304
47.1482
40.1893
34.6281
30.359
27.2285
25.0684
23.7255
23.0848
23.0848
23.7255
25.0684
27.2285
30.359
34.6281
40.1893
47.1482
55.5304
65.2564
76.13
87.843
100
-300
-300
-300
-300
-300
-300
-300
-300
-300
-300
-300
-300
-300
-300
100
94.6059
89.379
84.4603
79.9424
75.8514
72.1348
68.6531
65.1753
61.3868
56.9556
51.7792
46.5319
41.8299
38.0811
35.5444
34.3974
34.7794
36.8102
40.5945
46.213
53.7064
63.0502
74.1179
86.619
100
-300
-300
-300
-300
-300
-300
-300
-300
-300
-300
100
87.8428
76.1295
65.2558
55.5295
47.1472
40.1882
34.6269
30.3577
27.2271
25.067
23.7241
23.0834
23.0834
23.7241
25.067
27.2271
30.3577
34.6269
40.1882
47.1472
55.5295
65.2558
76.1295
87.8428
100
-300
-300
-300
-300
-300
-300
-300
-300
-300
-300
-300
-300
-300
-300
100
96.287
92.686
89.2906
86.1579
83.2943
80.6403
78.0505
75.2573
71.8061
66.9833
60.0589
52.9194
46.5868
41.5119
37.9047
35.8846
35.54
36.9508
40.1947
45.3445
52.4601
61.578
72.6884
85.6602
100
-300
-300
-300
-300
-300
-300
-300
-300
-300
-300
100
87.8427
76.1293
65.2555
55.5292
47.1467
40.1877
34.6263
30.3571
27.2265
25.0664
23.7235
23.0827
23.0827
23.7235
25.0664
27.2265
30.3571
34.6263
40.1877
47.1467
55.5292
65.2555
76.1293
87.8427
100
-300
-300
-300
-300
-300
-300
-300
-300
-300
-300
-300
-300
-300
-300
100
98.1065
96.2693
94.5343
92.9284
91.4497
90.0563
88.6445
86.9934
84.6028
80.1672
69.723
59.7957
51.4924
44.9695
40.2399
37.3082
36.1899
36.9139
39.522
44.0695
50.6285
59.3037
70.2691
83.7997
100
-300
-300
-300
-300
-300
-300
-300
-300
-300
-300
100
87.8427
76.1292
65.2553
55.529
47.1465
40.1874
34.6261
30.3568
27.2262
25.0661
23.7232
23.0824
23.0824
23.7232
25.0661
27.2262
30.3568
34.6261
40.1874
47.1465
55.529
65.2553
76.1292
87.8427
100
-300
-300
-300
-300
-300
-300
-300
-300
-300
-300
-300
-300
-300
-300
100
100
100
100
100
100
100
100
100
100
100
79.7771
66.1997
55.9595
48.1132
42.35
38.5501
36.6609
36.6609
38.5501
42.35
48.1131
55.9594
66.1996
79.777
100
100
100
100
100
100
100
100
100
100
100
100
87.8426
76.1292
65.2553
55.5289
47.1465
40.1873
34.6259
30.3567
27.2261
25.066
23.7231
23.0823
23.0823
23.7231
25.066
27.2261
30.3567
34.6259
40.1873
47.1465
55.5289
65.2553
76.1292
87.8426
100
-300
-300
-300
-300
-300
-300
-300
-300
-300
-300
-300
-300
-300
-300
-300
-300
-300
-300
-300
-300
-300
-300
-300
-300
100
83.7997
70.269
59.3036
50.6283
44.0692
39.5217
36.9135
36.1895
37.3077
40.2395
44.9691
51.492
59.7953
69.7225
80.1668
84.6024
86.993
88.6441
90.056
91.4494
92.9281
94.5341
96.2691
98.1065
100
100
87.8426
76.1292
65.2553
55.5289
47.1464
40.1873
34.6259
30.3567
27.226
25.0659
23.723
23.0822
23.0822
23.723
25.0659
27.226
30.3566
34.6259
40.1873
47.1464
55.5289
65.2553
76.1292
87.8426
100
-300
-300
-300
-300
-300
-300
-300
-300
-300
-300
-300
-300
-300
-300
-300
-300
-300
-300
-300
-300
-300
-300
-300
-300
100
85.6601
72.688
61.5775
52.4594
45.3437
40.1939
36.9499
35.539
35.8836
37.9036
41.5107
46.5857
52.9183
60.0577
66.9822
71.805
75.2563
78.0495
80.6394
83.2935
86.1572
89.2901
92.6857
96.2868
100
100
87.8426
76.1292
65.2553
55.5289
47.1464
40.1873
34.6259
30.3566
27.226
25.0659
23.723
23.0822
23.0822
23.723
25.0659
27.226
30.3566
34.6259
40.1873
47.1464
55.5289
65.2552
76.1291
87.8426
100
-300
-300
-300
-300
-300
-300
-300
-300
-300
-300
-300
-300
-300
-300
-300
-300
-300
-300
-300
-300
-300
-300
-300
-300
100
86.6185
74.117
63.049
53.7049
46.2112
40.5924
36.808
34.777
34.395
35.5418
38.0786
41.8273
46.5294
51.7766
56.953
61.3844
65.1729
68.6509
72.1328
75.8496
79.9409
84.4591
89.3781
94.6055
100
100
87.8426
76.1292
65.2552
55.5289
47.1464
40.1873
34.6259
30.3566
27.226
25.0659
23.723
23.0822
23.0822
23.723
25.0659
27.226
30.3566
34.6258
40.1872
47.1464
55.5288
65.2552
76.1291
87.8426
100
-300
-300
-300
-300
-300
-300
-300
-300
-300
-300
-300
-300
-300
-300
-300
-300
-300
-300
-300
-300
-300
-300
-300
-300
100
87.1468
74.9644
63.9715
54.5069
46.7539
40.7753
36.5457
33.9795
32.9541
33.3235
34.9223
37.5576
40.9912
44.9218
49.0009
52.9449
56.7611
60.6251
64.7522
69.3246
74.4568
80.1804
86.4419
93.1111
100
100
87.8426
76.1292
65.2552
55.5289
47.1464
40.1873
34.6259
30.3566
27.226
25.0659
23.723
23.0822
23.0822
23.7229
25.0658
27.226
30.3566
34.6258
40.1872
47.1463
55.5288
65.2552
76.1291
87.8426
100
-300
-300
-300
-300
-300
-300
-300
-300
-300
-300
-300
-300
-300
-300
-300
-300
-300
-300
-300
-300
-300
-300
-300
-300
100
87.4482
75.4664
64.5343
54.9973
47.0617
40.8093
36.2228
33.2133
31.6464
31.3618
32.1848
33.9293
36.3968
39.3795
42.6842
46.1904
49.9181
53.9923
58.5766
63.8164
69.7995
76.5325
83.9325
91.8324
100
100
87.8426
76.1292
65.2552
55.5289
47.1464
40.1873
34.6259
30.3566
27.226
25.0659
23.7229
23.0822
23.0822
23.7229
25.0658
27.2259
30.3565
34.6257
40.1871
47.1462
55.5287
65.2551
76.129
87.8426
100
-300
-300
-300
-300
-300
-300
-300
-300
-300
-300
-300
-300
-300
-300
-300
-300
-300
-300
-300
-300
-300
-300
-300
-300
100
87.6221
75.7612
64.8675
55.2808
47.2135
40.7547
35.8898
32.5266
30.5235
29.7136
29.9218
30.9769
32.7183
35.0065
37.741
40.8865
44.4934
48.6783
53.583
59.3304
65.9868
73.5355
81.8662
90.7781
100
100
87.8426
76.1292
65.2552
55.5289
47.1464
40.1873
34.6259
30.3566
27.226
25.0659
23.7229
23.0822
23.0821
23.7228
25.0657
27.2258
30.3563
34.6255
40.1869
47.146
55.5284
65.2549
76.1289
87.8425
100
-300
-300
-300
-300
-300
-300
-300
-300
-300
-300
-300
-300
-300
-300
-300
-300
-300
-300
-300
-300
-300
-300
-300
-300
100
87.7221
75.9312
65.0579
55.4339
47.2706
40.6583
35.5819
31.9463
29.6055
28.3899
28.1283
28.6642
29.868
31.6474
33.9595
36.821
40.3105
44.5508
49.6778
55.8023
62.9751
71.161
80.2257
89.9401
100
100
87.8426
76.1292
65.2552
55.5289
47.1464
40.1873
34.6259
30.3566
27.226
25.0658
23.7229
23.0821
23.082
23.7227
25.0655
27.2255
30.356
34.6251
40.1864
47.1455
55.528
65.2545
76.1286
87.8423
100
-300
-300
-300
-300
-300
-300
-300
-300
-300
-300
-300
-300
-300
-300
-300
-300
-300
-300
-300
-300
-300
-300
-300
-300
100
87.7785
76.0266
65.1619
55.5088
47.2757
40.5514
35.319
31.4807
28.8878
27.37
26.7607
26.9162
27.7295
29.1405
31.1435
33.789
37.1781
41.444
46.7233
53.1212
60.6785
69.3455
78.9693
89.2977
100
100
87.8426
76.1292
65.2552
55.5289
47.1464
40.1873
34.6259
30.3566
27.226
25.0658
23.7228
23.082
23.0818
23.7224
25.0651
27.225
30.3553
34.6243
40.1855
47.1445
55.527
65.2536
76.128
87.842
100
-300
-300
-300
-300
-300
-300
-300
-300
-300
-300
-300
-300
-300
-300
-300
-300
-300
-300
-300
-300
-300
-300
-300
-300
100
87.8094
76.078
65.2151
55.5396
47.2565
40.4525
35.1084
31.1241
28.3493
26.6139
25.7555
25.6398
26.1758
27.3253
29.1066
31.5932
34.903
39.179
44.5609
51.1521
58.9869
68.0053
78.0404
88.8223
100
100
87.8426
76.1292
65.2552
55.5289
47.1464
40.1872
34.6258
30.3566
27.2259
25.0657
23.7227
23.0817
23.0815
23.7219
25.0643
27.2239
30.354
34.6227
40.1836
47.1425
55.5251
65.252
76.1267
87.8413
100
-300
-300
-300
-300
-300
-300
-300
-300
-300
-300
-300
-300
-300
-300
-300
-300
-300
-300
-300
-300
-300
-300
-300
-300
100
87.8254
76.1039
65.2394
55.547
47.2289
40.3696
34.948
30.8621
27.9605
26.0737
25.0422
24.7386
25.0829
26.0512
27.6777
30.0511
33.3016
37.5801
43.0299
49.754
57.783
67.0498
77.3773
88.4827
100
100
87.8426
76.1292
65.2552
55.5289
47.1464
40.1872
34.6258
30.3565
27.2258
25.0655
23.7224
23.0813
23.0808
23.7208
25.0629
27.222
30.3514
34.6196
40.1801
47.1388
55.5214
65.2487
76.1243
87.84
100
-300
-300
-300
-300
-300
-300
-300
-300
-300
-300
-300
-300
-300
-300
-300
-300
-300
-300
-300
-300
-300
-300
-300
-300
100
87.8327
76.1149
65.2473
55.5425
47.2004
40.304
34.8304
30.6764
27.6896
25.7008
24.5528
24.1231
24.3386
25.1847
26.7062
29.0018
32.2099
36.4876
41.9812
48.7943
56.955
66.3917
76.9202
88.2484
100
100
87.8426
76.1292
65.2552
55.5288
47.1464
40.1872
34.6258
30.3564
27.2256
25.0652
23.7219
23.0804
23.0795
23.7189
25.0602
27.2183
30.3467
34.6138
40.1735
47.1317
55.5145
65.2426
76.1197
87.8375
100
-300
-300
-300
-300
-300
-300
-300
-300
-300
-300
-300
-300
-300
-300
-300
-300
-300
-300
-300
-300
-300
-300
-300
-300
100
87.8344
76.1165
65.2451
55.5311
47.1732
40.2528
34.7458
30.5479
27.506
25.4512
24.2277
23.7159
23.8476
24.6139
26.0663
28.31
31.4892
35.765
41.2864
48.1572
56.4046
65.9537
76.6155
88.0922
100
100
87.8426
76.1291
65.2552
55.5288
47.1463
40.1872
34.6257
30.3562
27.2253
25.0647
23.721
23.079
23.0772
23.7156
25.0553
27.2118
30.3382
34.6035
40.1615
47.1188
55.5017
65.2313
76.1112
87.833
100
-300
-300
-300
-300
-300
-300
-300
-300
-300
-300
-300
-300
-300
-300
-300
-300
-300
-300
-300
-300
-300
-300
-300
-300
100
87.8318
76.1105
65.2344
55.5134
47.1453
40.2103
34.6833
30.4588
27.3833
25.2878
24.0175
23.4545
23.5335
24.2494
25.6579
27.8683
31.0286
35.3025
40.8409
47.7482
56.0507
65.6717
76.4193
87.9916
100
100
87.8426
76.1291
65.2552
55.5288
47.1463
40.1871
34.6255
30.356
27.2248
25.0638
23.7194
23.0765
23.0733
23.7098
25.047
27.2004
30.3234
34.5852
40.1403
47.0959
55.4789
65.211
76.0958
87.8247
100
-300
-300
-300
-300
-300
-300
-300
-300
-300
-300
-300
-300
-300
-300
-300
-300
-300
-300
-300
-300
-300
-300
-300
-300
100
87.8244
76.0961
65.2136
55.4866
47.1121
40.1693
34.6319
30.3935
27.2996
25.1811
23.8836
23.2904
23.3379
24.0234
25.4051
27.595
30.7434
35.0159
40.5645
47.4941
55.8306
65.4962
76.2971
87.9289
100
100
87.8426
76.1291
65.2552
55.5288
47.1462
40.187
34.6253
30.3555
27.224
25.0623
23.7169
23.0724
23.0669
23.7001
25.0331
27.1812
30.2983
34.554
40.1039
47.0562
55.4392
65.1753
76.0688
87.8101
100
-300
-300
-300
-300
-300
-300
-300
-300
-300
-300
-300
-300
-300
-300
-300
-300
-300
-300
-300
-300
-300
-300
-300
-300
100
87.81
76.0692
65.1772
55.4439
47.0657
40.1205
34.5805
30.3378
27.2369
25.1082
23.7973
23.1882
23.2184
23.8867
25.253
27.431
30.5723
34.8439
40.3985
47.3413
55.6982
65.3906
76.2235
87.8911
100
100
87.8426
76.1291
65.2552
55.5287
47.1461
40.1868
34.6249
30.3548
27.2226
25.0599
23.7129
23.0659
23.0567
23.6846
25.0106
27.15
30.257
34.5023
40.0429
46.9891
55.3714
65.1142
76.0221
87.7847
100
-300
-300
-300
-300
-300
-300
-300
-300
-300
-300
-300
-300
-300
-300
-300
-300
-300
-300
-300
-300
-300
-300
-300
-300
100
87.7847
76.0224
65.1153
55.3742
46.9945
40.0521
34.5168
30.2786
27.1803
25.0514
23.7373
23.1224
23.1451
23.805
25.1634
27.335
30.4725
34.7438
40.3019
47.2523
55.621
65.329
76.1806
87.8691
100
100
87.8426
76.1291
65.2552
55.5287
47.146
40.1865
34.6243
30.3537
27.2206
25.0564
23.7069
23.0559
23.0408
23.6604
24.9752
27.1005
30.1911
34.419
39.9437
46.8789
55.2589
65.0115
75.943
87.7415
100
-300
-300
-300
-300
-300
-300
-300
-300
-300
-300
-300
-300
-300
-300
-300
-300
-300
-300
-300
-300
-300
-300
-300
-300
100
87.7415
75.9432
65.0122
55.2604
46.8818
39.9486
34.4267
30.2025
27.1165
24.9967
23.6882
23.0754
23.0976
23.7554
25.1109
27.2799
30.4158
34.6871
40.2473
47.2021
55.5775
65.2942
76.1564
87.8566
100
100
87.8426
76.1291
65.2551
55.5286
47.1458
40.186
34.6235
30.3521
27.2177
25.0511
23.6979
23.041
23.0171
23.624
24.9216
27.0249
30.0893
34.2888
39.7867
46.7021
55.076
64.8424
75.8112
87.6689
100
-300
-300
-300
-300
-300
-300
-300
-300
-300
-300
-300
-300
-300
-300
-300
-300
-300
-300
-300
-300
-300
-300
-300
-300
100
87.6689
75.8114
64.8428
55.0768
46.7036
39.7892
34.2928
30.0951
27.0331
24.9326
23.6382
23.0348
23.0623
23.7227
25.0791
27.248
30.3839
34.6556
40.2172
47.1746
55.5536
65.2752
76.1431
87.8498
100
100
87.8426
76.1291
65.255
55.5284
47.1455
40.1854
34.6223
30.3498
27.2135
25.0437
23.6851
23.0197
22.9829
23.5711
24.843
26.9129
29.9369
34.0913
39.5451
46.4257
54.7851
64.5689
75.5948
87.5483
100
-300
-300
-300
-300
-300
-300
-300
-300
-300
-300
-300
-300
-300
-300
-300
-300
-300
-300
-300
-300
-300
-300
-300
-300
100
87.5483
75.5949
64.5691
54.7855
46.4264
39.5464
34.0933
29.9398
26.917
24.8485
23.5782
22.9917
23.0303
23.6974
25.0576
27.2286
30.3657
34.6383
40.201
47.1599
55.5409
65.2651
76.1361
87.8462
100
100
87.8426
76.129
65.255
55.5282
47.1451
40.1846
34.6207
30.3468
27.2079
25.0336
23.6676
22.9904
22.9354
23.4971
24.7321
26.753
29.7163
33.8014
39.1842
46.0046
54.3323
64.1333
75.2425
87.3485
100
-300
-300
-300
-300
-300
-300
-300
-300
-300
-300
-300
-300
-300
-300
-300
-300
-300
-300
-300
-300
-300
-300
-300
-300
100
87.3486
75.2426
64.1334
54.3326
46.005
39.1848
33.8024
29.7177
26.755
24.7347
23.5006
22.9397
22.9955
23.6735
25.0403
27.2152
30.3544
34.6284
40.1921
47.152
55.5343
65.2598
76.1324
87.8443
100
100
87.8426
76.129
65.2548
55.528
47.1446
40.1836
34.6186
30.3428
27.2005
25.0204
23.6445
22.9515
22.872
23.3975
24.581
26.5329
29.4083
33.3897
38.6614
45.3801
53.6422
63.4487
74.6709
87.0154
100
-300
-300
-300
-300
-300
-300
-300
-300
-300
-300
-300
-300
-300
-300
-300
-300
-300
-300
-300
-300
-300
-300
-300
-300
100
87.0154
74.671
63.4488
53.6423
45.3803
38.6617
33.3902
29.409
26.5338
24.5823
23.3991
22.874
22.9539
23.6473
25.0235
27.2039
30.3464
34.6223
40.1871
47.1479
55.5308
65.2571
76.1306
87.8434
100
100
87.8425
76.1289
65.2547
55.5277
47.1439
40.1823
34.6161
30.3379
27.1913
25.0037
23.6152
22.9019
22.7907
23.2685
24.3836
26.2414
28.9945
32.8262
37.9293
44.4807
52.6133
62.3852
73.7405
86.4477
100
-300
-300
-300
-300
-300
-300
-300
-300
-300
-300
-300
-300
-300
-300
-300
-300
-300
-300
-300
-300
-300
-300
-300
-300
100
86.4477
73.7405
62.3852
52.6134
44.4808
37.9294
32.8264
28.9948
26.2419
24.3842
23.2693
22.7916
22.903
23.6165
25.0051
27.1929
30.3395
34.6177
40.1839
47.1454
55.529
65.2558
76.1297
87.8429
100
100
87.8425
76.1289
65.2546
55.5274
47.1432
40.1808
34.613
30.3319
27.1802
24.9835
23.5797
22.8413
22.6906
23.1085
24.1361
25.8715
28.4611
32.0854
36.9426
43.2287
51.1192
60.7534
72.2106
85.4367
100
-300
-300
-300
-300
-300
-300
-300
-300
-300
-300
-300
-300
-300
-300
-300
-300
-300
-300
-300
-300
-300
-300
-300
-300
100
85.4367
72.2106
60.7535
51.1192
43.2287
36.9427
32.0855
28.4612
25.8717
24.1363
23.1088
22.691
22.8418
23.5803
24.9842
27.1809
30.3327
34.6137
40.1815
47.1439
55.5279
65.255
76.1292
87.8427
100
100
87.8425
76.1288
65.2544
55.527
47.1424
40.179
34.6095
30.3252
27.1674
24.9602
23.5384
22.7704
22.5727
22.9185
23.8394
25.4228
27.8042
31.1554
35.6714
41.5576
49.0242
58.298
69.6619
83.4948
100
-300
-300
-300
-300
-300
-300
-300
-300
-300
-300
-300
-300
-300
-300
-300
-300
-300
-300
-300
-300
-300
-300
-300
-300
100
83.4948
69.6619
58.298
49.0242
41.5576
35.6715
31.1554
27.8042
25.4229
23.8395
22.9186
22.5729
22.7706
23.5387
24.9605
27.1677
30.3255
34.6098
40.1793
47.1427
55.5272
65.2546
76.1289
87.8426
100
100
87.8425
76.1287
65.2543
55.5266
47.1415
40.1772
34.6057
30.3177
27.1533
24.9343
23.4924
22.691
22.4399
22.703
23.5001
24.9043
27.0349
30.0471
34.1199
39.4469
46.2368
54.7462
65.4103
79.3108
100
100
100
100
100
100
100
100
100
100
100
100
100
100
100
100
100
100
100
100
100
100
100
100
100
100
79.3108
65.4103
54.7462
46.2368
39.447
34.1199
30.0471
27.0349
24.9043
23.5001
22.703
22.44
22.6911
23.4925
24.9344
27.1535
30.3179
34.6059
40.1773
47.1417
55.5267
65.2543
76.1288
87.8425
100
100
87.8425
76.1287
65.2542
55.5263
47.1407
40.1754
34.6019
30.31
27.1386
24.907
23.4435
22.6062
22.2972
22.47
23.1307
24.3352
26.182
28.8017
32.3446
36.9674
42.8212
50.0436
58.7382
68.8432
79.3108
83.4948
85.4367
86.4477
87.0154
87.3485
87.5482
87.6688
87.7412
87.784
87.8088
87.8221
87.8279
87.8279
87.8221
87.8088
87.784
87.7412
87.6688
87.5482
87.3485
87.0154
86.4477
85.4367
83.4948
79.3108
68.8432
58.7382
50.0436
42.8212
36.9674
32.3446
28.8017
26.182
24.3352
23.1307
22.47
22.2972
22.6062
23.4435
24.907
27.1386
30.3101
34.602
40.1754
47.1408
55.5264
65.2542
76.1288
87.8425
100
100
87.8426
76.1289
65.2543
55.5262
47.1402
40.1738
34.5983
30.3026
27.1239
24.8795
23.3939
22.5197
22.151
22.2302
22.7486
23.7431
25.2888
27.4876
30.4545
34.2997
39.1063
44.8967
51.5679
58.7382
65.4103
69.6619
72.2106
73.7405
74.6709
75.2425
75.5947
75.811
75.9424
76.0209
76.0663
76.091
76.1017
76.1017
76.091
76.0663
76.0209
75.9424
75.811
75.5947
75.2425
74.6709
73.7405
72.2106
69.6619
65.4103
58.7382
51.5679
44.8967
39.1063
34.2997
30.4545
27.4876
25.2888
23.7431
22.7486
22.2302
22.151
22.5197
23.3939
24.8795
27.1239
30.3026
34.5983
40.1738
47.1402
55.5262
65.2543
76.1289
87.8426
100
100
87.8428
76.1292
65.2547
55.5266
47.1402
40.1729
34.5955
30.296
27.1104
24.8535
23.3463
22.4359
22.0086
21.9954
22.3732
23.1595
24.4056
26.185
28.5782
31.6541
35.4452
39.9127
44.8967
50.0436
54.7462
58.298
60.7534
62.3851
63.4487
64.1332
64.5687
64.842
65.0107
65.1126
65.172
65.2045
65.2186
65.2186
65.2045
65.172
65.1126
65.0107
64.842
64.5687
64.1332
63.4487
62.3851
60.7534
58.298
54.7462
50.0436
44.8967
39.9127
35.4452
31.6541
28.5782
26.185
24.4056
23.1595
22.3732
21.9954
22.0086
22.4359
23.3463
24.8535
27.1104
30.296
34.5955
40.173
47.1402
55.5266
65.2547
76.1292
87.8428
100
100
87.8432
76.1301
65.2559
55.528
47.1414
40.1735
34.5944
30.2915
27.0995
24.831
23.3036
22.3594
21.8771
21.7774
22.0231
22.6141
23.5798
24.9678
26.83
29.2049
32.0958
35.4452
39.1063
42.8212
46.2368
49.0242
51.1192
52.6133
53.6421
54.3323
54.7849
55.0755
55.258
55.3696
55.4354
55.4715
55.4873
55.4873
55.4715
55.4354
55.3696
55.258
55.0755
54.7849
54.3323
53.6421
52.6133
51.1192
49.0242
46.2368
42.8212
39.1063
35.4452
32.0958
29.2049
26.83
24.9678
23.5798
22.6141
22.0231
21.7774
21.8771
22.3594
23.3036
24.831
27.0995
30.2915
34.5944
40.1735
47.1414
55.528
65.2559
76.1301
87.8432
100
100
87.8442
76.132
65.2586
55.5313
47.145
40.1768
34.5965
30.2908
27.0931
24.8144
23.2691
22.2946
21.7632
21.5863
21.7141
22.1312
22.8482
23.8915
25.2912
27.0656
29.2049
31.6541
34.2997
36.9674
39.4469
41.5576
43.2287
44.4807
45.3801
46.0045
46.4255
46.7016
46.878
46.9872
47.0523
47.0883
47.1042
47.1042
47.0883
47.0523
46.9872
46.878
46.7016
46.4255
46.0045
45.3801
44.4807
43.2287
41.5576
39.4469
36.9674
34.2997
31.6541
29.2049
27.0656
25.2912
23.8915
22.8482
22.1312
21.7141
21.5863
21.7632
22.2946
23.2691
24.8144
27.0931
30.2908
34.5965
40.1768
47.145
55.5313
65.2586
76.132
87.8442
100
100
87.8462
76.1359
65.2642
55.5383
47.1531
40.1852
34.6044
30.2967
27.0946
24.8073
23.2468
22.2466
21.6733
21.4304
21.4581
21.7277
22.2349
22.9898
24.0065
25.2912
26.83
28.5782
30.4545
32.3446
34.1199
35.6714
36.9426
37.9293
38.6613
39.1841
39.5449
39.7863
39.9428
40.0411
40.1003
40.1332
40.1478
40.1478
40.1332
40.1003
40.0411
39.9428
39.7863
39.5449
39.1841
38.6613
37.9293
36.9426
35.6714
34.1199
32.3446
30.4545
28.5782
26.83
25.2912
24.0065
22.9898
22.2349
21.7277
21.4581
21.4304
21.6733
22.2466
23.2468
24.8073
27.0946
30.2967
34.6044
40.1852
47.1531
55.5383
65.2642
76.1359
87.8462
100
100
87.8501
76.1435
65.2753
55.5523
47.1695
40.2033
34.6231
30.3145
27.1093
24.8154
23.2427
22.2217
21.6142
21.3177
21.2638
21.414
21.7521
22.2763
22.9898
23.8915
24.9678
26.185
27.4876
28.8017
30.0471
31.1554
32.0854
32.8262
33.3897
33.8013
34.0912
34.2884