# vtk DataFile Version 2.0
LBE two cylinders
ASCII
DATASET STRUCTURED_POINTS
DIMENSIONS 76 76 1
ASPECT_RATIO 1 1 1
ORIGIN 0 0 0
POINT_DATA 5776
SCALARS temp double 1
LOOKUP_TABLE default
100
100
100
100
100
100
100
100
100
100
100
100
100
100
100
100
100
100
100
100
100
100
100
100
100
100
-300
-300
-300
-300
-300
-300
-300
-300
-300
-300
-300
-300
-300
-300
100
100
100
100
100
100
100
100
100
100
100
100
100
100
100
100
100
100
100
100
100
100
100
100
100
100
-300
-300
-300
-300
-300
-300
-300
-300
-300
-300
100
98.899
97.8228
96.7944
95.8346
94.9602
94.184
93.5146
92.9568
92.5125
92.1812
91.9617
91.8525
91.8525
91.9617
92.1812
92.5125
92.9568
93.5146
94.184
94.9602
95.8346
96.7944
97.8228
98.899
100
-300
-300
-300
-300
-300
-300
-300
-300
-300
-300
-300
-300
-300
-300
100
98.9012
97.827
96.8006
95.8424
94.9693
94.1941
93.5253
92.9678
92.5234
92.1918
91.9717
91.8616
91.8606
91.9688
92.1873
92.5175
92.9609
93.5178
94.1865
94.962
95.8359
96.7953
97.8233
98.8993
100
-300
-300
-300
-300
-300
-300
-300
-300
-300
-300
100
97.822
95.6928
93.6585
91.7597
90.0298
88.4943
87.17
86.0666
85.1876
84.5323
84.0981
83.882
83.882
84.0981
84.5323
85.1876
86.0666
87.17
88.4943
90.0298
91.7597
93.6585
95.6928
97.822
100
-300
-300
-300
-300
-300
-300
-300
-300
-300
-300
-300
-300
-300
-300
100
97.8269
95.7024
93.6724
91.7773
90.0505
88.5172
87.1943
86.0916
85.2124
84.5563
84.1206
83.9026
83.9004
84.1143
84.5461
85.199
86.0759
87.1774
88.4999
90.034
91.7627
93.6606
95.6941
97.8226
100
-300
-300
-300
-300
-300
-300
-300
-300
-300
-300
100
96.7912
93.6544
90.6573
87.8599
85.3113
83.0491
81.0981
79.4725
78.1775
77.2122
76.5725
76.254
76.254
76.5725
77.2122
78.1775
79.4725
81.0981
83.0491
85.3113
87.8599
90.6573
93.6544
96.7912
100
-300
-300
-300
-300
-300
-300
-300
-300
-300
-300
-300
-300
-300
-300
100
96.8001
93.6718
90.6825
87.8918
85.3488
83.0906
81.1423
79.5178
78.2225
77.2557
76.6134
76.2915
76.2875
76.6017
77.2371
78.1983
79.4894
81.1114
83.0593
85.3189
87.8653
90.661
93.6567
96.7923
100
-300
-300
-300
-300
-300
-300
-300
-300
-300
-300
100
95.8261
91.7459
87.8474
84.2086
80.8936
77.9509
75.4132
73.2988
71.6143
70.3586
69.5265
69.1123
69.1123
69.5265
70.3586
71.6143
73.2988
75.4132
77.9509
80.8936
84.2086
87.8474
91.7459
95.8261
100
-300
-300
-300
-300
-300
-300
-300
-300
-300
-300
-300
-300
-300
-300
100
95.8412
91.7753
87.89
84.2626
80.957
78.0213
75.488
73.3755
71.6905
70.4322
69.5958
69.1758
69.1691
69.5761
70.4008
71.6494
73.3272
75.4356
77.9681
80.9063
84.2177
87.8536
91.7497
95.8279
100
-300
-300
-300
-300
-300
-300
-300
-300
-300
-300
100
94.9422
89.9977
85.2736
80.8641
76.847
73.2812
70.2061
67.6438
65.6026
64.0811
63.0728
62.5708
62.5708
63.0728
64.0811
65.6026
67.6438
70.2061
73.2812
76.847
80.8641
85.2736
89.9977
94.9422
100
-300
-300
-300
-300
-300
-300
-300
-300
-300
-300
-300
-300
-300
-300
100
94.9667
90.0458
85.3432
80.9524
76.9507
73.3963
70.3284
67.7693
65.7274
64.2015
63.1861
62.6746
62.6637
63.1538
64.15
65.6599
67.6901
70.2425
73.3091
76.8677
80.8788
85.2835
90.0038
94.945
100
-300
-300
-300
-300
-300
-300
-300
-300
-300
-300
100
94.15
88.4311
82.967
77.8669
73.2207
69.0964
65.5397
62.5762
60.2153
58.4555
57.2893
56.7087
56.7087
57.2893
58.4555
60.2153
62.5762
65.5397
69.0964
73.2207
77.8669
82.967
88.4311
94.15
100
-300
-300
-300
-300
-300
-300
-300
-300
-300
-300
-300
-300
-300
-300
100
94.1891
88.5078
83.0782
78.008
73.3863
69.2803
65.7352
62.7768
60.4148
58.6481
57.4705
56.8748
56.8571
57.4187
58.5655
60.3066
62.6499
65.5976
69.1406
73.2534
77.8901
82.9826
88.4406
94.1544
100
-300
-300
-300
-300
-300
-300
-300
-300
-300
-300
100
93.4553
87.0575
80.9446
75.239
70.0412
65.4272
61.4482
58.1329
55.4918
53.5231
52.2185
51.569
51.569
52.2185
53.5231
55.4918
58.1329
61.4482
65.4272
70.0412
75.239
80.9446
87.0575
93.4553
100
-300
-300
-300
-300
-300
-300
-300
-300
-300
-300
-300
-300
-300
-300
100
93.5166
87.1776
81.1186
75.46
70.3006
65.7153
61.7547
58.4474
55.8045
53.8252
52.5025
51.8293
51.8015
52.4211
53.6952
55.6343
58.2478
61.5383
65.4957
70.0916
75.2747
80.9685
87.072
93.4622
100
-300
-300
-300
-300
-300
-300
-300
-300
-300
-300
100
92.8594
85.879
79.2096
72.9844
67.3134
62.2794
57.9382
54.3211
51.4396
49.2916
47.8683
47.1597
47.1597
47.8683
49.2916
51.4396
54.3211
57.9382
62.2794
67.3134
72.9844
79.2096
85.879
92.8594
100
-300
-300
-300
-300
-300
-300
-300
-300
-300
-300
-300
-300
-300
-300
100
92.9536
86.0635
79.477
73.3241
67.7122
62.7224
58.4096
54.805
51.9208
49.7565
48.3054
47.5601
47.5172
48.1795
49.5557
51.6579
54.4967
58.0755
62.3835
67.3897
73.0382
79.2454
85.9007
92.8696
100
-300
-300
-300
-300
-300
-300
-300
-300
-300
-300
100
92.3592
84.8897
77.753
71.0918
65.0235
59.6368
54.9916
51.1212
48.0379
45.7395
44.2165
43.4583
43.4583
44.2165
45.7395
48.0379
51.1212
54.9916
59.6368
65.0235
71.0918
77.753
84.8897
92.3592
100
-300
-300
-300
-300
-300
-300
-300
-300
-300
-300
-300
-300
-300
-300
100
92.5012
85.168
78.1564
71.6044
65.6256
60.3059
55.7037
51.8523
48.7651
46.4421
44.877
44.063
43.998
44.6859
46.1372
48.366
51.3845
55.1968
59.7918
65.1365
71.1709
77.8054
84.9212
92.3739
100
-300
-300
-300
-300
-300
-300
-300
-300
-300
-300
100
91.9482
84.077
76.5564
69.537
63.1423
57.466
52.571
48.4925
45.2434
42.8215
41.2166
40.4177
40.4177
41.2166
42.8215
45.2434
48.4925
52.571
57.466
63.1423
69.537
76.5564
84.077
91.9482
100
-300
-300
-300
-300
-300
-300
-300
-300
-300
-300
-300
-300
-300
-300
100
92.1585
84.4891
77.1541
70.2967
64.035
58.4584
53.6276
49.5776
46.3228
43.8644
42.1968
41.3148
41.2176
41.9116
43.4095
45.7275
48.8798
52.8718
57.6921
63.3063
69.6509
76.6313
84.1216
91.9689
100
-300
-300
-300
-300
-300
-300
-300
-300
-300
-300
100
91.6178
83.4235
75.5944
68.2869
61.6299
55.7208
50.625
46.3792
42.9969
40.4757
38.805
37.9732
37.9732
38.805
40.4757
42.9969
46.3792
50.625
55.7208
61.6299
68.2869
75.5944
83.4235
91.6178
100
-300
-300
-300
-300
-300
-300
-300
-300
-300
-300
-300
-300
-300
-300
100
91.9236
84.0231
76.4641
69.3928
62.9298
57.1665
52.1649
47.9611
44.5708
41.9963
40.2338
39.2803
39.1377
39.8152
41.3288
43.6975
46.938
51.057
56.0437
61.8624
68.4472
75.6987
83.4852
91.6461
100
-300
-300
-300
-300
-300
-300
-300
-300
-300
-300
100
91.3578
82.9094
74.8374
67.3033
60.4399
54.3475
49.0937
44.7163
41.2292
38.6299
36.9074
36.0499
36.0499
36.9074
38.6299
41.2292
44.7163
49.0937
54.3475
60.4399
67.3033
74.8374
82.9094
91.3578
100
-300
-300
-300
-300
-300
-300
-300
-300
-300
-300
-300
-300
-300
-300
100
91.7947
83.7661
76.0804
68.8846
62.2995
56.4168
51.2989
46.9825
43.4843
40.8085
38.9539
37.9207
37.7147
38.3494
39.845
42.2242
45.5068
49.7018
54.7989
60.7621
67.5231
74.9787
82.9919
91.3954
100
-300
-300
-300
-300
-300
-300
-300
-300
-300
-300
100
91.1575
82.5134
74.2544
66.5457
59.5233
53.2898
47.9144
43.4356
39.8678
37.2082
35.4459
34.5686
34.5686
35.4459
37.2082
39.8678
43.4356
47.9144
53.2898
59.5233
66.5457
74.2544
82.5134
91.1575
100
-300
-300
-300
-300
-300
-300
-300
-300
-300
-300
-300
-300
-300
-300
100
91.7707
83.7158
75.9997
68.7672
62.1373
56.2003
51.0177
46.6261
43.0434
40.276
38.3264
37.1995
36.9067
37.4674
38.9072
41.2542
44.5322
48.7527
53.9072
59.9594
66.8391
74.44
82.62
91.2055
100
-300
-300
-300
-300
-300
-300
-300
-300
-300
-300
100
91.0065
82.2148
73.8148
65.9745
58.8322
52.4923
47.0252
42.47
38.8413
36.1364
34.3441
33.4517
33.4517
34.3441
36.1364
38.8413
42.47
47.0252
52.4923
58.8322
65.9745
73.8148
82.2148
91.0065
100
-300
-300
-300
-300
-300
-300
-300
-300
-300
-300
-300
-300
-300
-300
100
91.8518
83.873
76.2228
69.0413
62.4435
56.5161
51.3183
46.886
43.2379
40.3832
38.3294
37.088
36.6781
37.1272
38.4685
40.7368
43.9611
48.1569
53.3177
59.4075
66.3549
74.0504
82.347
91.0649
100
-300
-300
-300
-300
-300
-300
-300
-300
-300
-300
100
90.895
81.9943
73.4903
65.5529
58.3221
51.9037
46.3688
41.7573
38.0837
35.3453
33.5307
32.6274
32.6274
33.5307
35.3453
38.0837
41.7573
46.3688
51.9037
58.3221
65.5529
73.4903
81.9943
90.895
100
-300
-300
-300
-300
-300
-300
-300
-300
-300
-300
-300
-300
-300
-300
100
92.0402
84.2416
76.7553
69.7142
63.2263
57.3729
52.209
47.7683
44.07
41.1269
38.9527
37.5679
37.0025
37.2946
38.4879
40.6259
43.7446
47.8642
52.9812
59.0605
66.0299
73.777
82.1498
90.9616
100
-300
-300
-300
-300
-300
-300
-300
-300
-300
-300
100
90.8145
81.835
73.2557
65.2481
57.9534
51.4783
45.8945
41.2422
37.5361
34.7735
32.943
32.0316
32.0316
32.943
34.7735
37.5361
41.2422
45.8945
51.4783
57.9534
65.2481
73.2557
81.835
90.8145
100
-300
-300
-300
-300
-300
-300
-300
-300
-300
-300
-300
-300
-300
-300
100
92.3391
84.8281
77.6073
70.7991
64.5022
58.7895
53.7096
49.2924
45.5563
42.5178
40.1991
38.6327
37.8631
37.9435
38.9311
40.8808
43.8371
47.8267
52.8498
58.873
65.8236
73.5865
82.0046
90.8833
100
-300
-300
-300
-300
-300
-300
-300
-300
-300
-300
100
90.7575
81.7223
73.0897
65.0324
57.6925
51.1772
45.5587
40.8776
37.1486
34.3689
32.527
31.61
31.61
32.527
34.3689
37.1486
40.8776
45.5587
51.1772
57.6925
65.0324
73.0897
81.7223
90.7575
100
-300
-300
-300
-300
-300
-300
-300
-300
-300
-300
-300
-300
-300
-300
100
92.7526
85.641
78.7918
72.3139
66.2937
60.793
55.8508
51.4901
47.7269
44.5808
42.0841
40.2864
39.2519
39.0542
39.7686
41.4641
44.1961
47.9985
52.8764
58.7989
65.6937
73.4434
81.8855
90.8162
100
-300
-300
-300
-300
-300
-300
-300
-300
-300
-300
100
90.7179
81.6441
72.9747
64.8829
57.5116
50.9684
45.326
40.6249
36.88
34.0884
32.2387
31.3178
31.3178
32.2387
34.0884
36.88
40.6249
45.326
50.9684
57.5116
64.8829
72.9747
81.6441
90.7179
100
-300
-300
-300
-300
-300
-300
-300
-300
-300
-300
-300
-300
-300
-300
100
93.2846
86.6885
80.3217
74.2773
68.6264
63.4159
58.6715
54.4049
50.6254
47.3537
44.6347
42.541
41.1656
40.61
40.9725
42.3395
44.7788
48.3327
53.0119
58.7892
65.5939
73.3076
81.7624
90.744
100
-300
-300
-300
-300
-300
-300
-300
-300
-300
-300
100
90.6911
81.5911
72.8965
64.7814
57.3888
50.8268
45.168
40.4534
36.6976
33.898
32.0429
31.1194
31.1194
32.0429
33.898
36.6976
40.4534
45.168
50.8267
57.3888
64.7814
72.8965
81.5911
90.6911
100
-300
-300
-300
-300
-300
-300
-300
-300
-300
-300
-300
-300
-300
-300
100
93.9377
87.9761
82.2068
76.7051
71.5238
66.6918
62.2161
58.0902
54.3088
50.8882
47.8873
45.4131
43.6013
42.5915
42.5112
43.4669
45.5392
48.779
53.2032
58.7894
65.4709
73.1308
81.5979
90.6461
100
-300
-300
-300
-300
-300
-300
-300
-300
-300
-300
100
90.6733
81.5558
72.8446
64.7139
57.3071
50.7325
45.063
40.3393
36.5763
33.7714
31.9128
30.9875
30.9875
31.9128
33.7714
36.5763
40.3393
45.063
50.7325
57.3071
64.7139
72.8446
81.5558
90.6733
100
-300
-300
-300
-300
-300
-300
-300
-300
-300
-300
-300
-300
-300
-300
100
94.7113
89.5037
84.4495
79.6046
75.0022
70.6499
66.5304
62.6087
58.8505
55.2532
51.8877
48.9185
46.5481
44.9691
44.3435
44.798
46.4245
49.281
53.3902
58.7362
65.2599
72.8512
81.341
90.4926
100
-300
-300
-300
-300
-300
-300
-300
-300
-300
-300
100
90.6616
81.5328
72.8107
64.6699
57.2539
50.6711
44.9945
40.2649
36.4973
33.6889
31.8279
30.9015
30.9015
31.8279
33.6889
36.4973
40.2649
44.9945
50.6711
57.2539
64.6699
72.8107
81.5328
90.6616
100
-300
-300
-300
-300
-300
-300
-300
-300
-300
-300
-300
-300
-300
-300
100
95.6006
91.2627
87.0395
82.9681
79.0623
75.3073
71.6563
68.0334
64.3494
60.5471
56.6926
53.0638
49.9761
47.6926
46.4106
46.2714
47.3725
49.7748
53.5051
58.5558
64.8805
72.3859
80.9175
90.2372
100
-300
-300
-300
-300
-300
-300
-300
-300
-300
-300
100
90.6542
81.5181
72.7891
64.6418
57.2199
50.6319
44.9508
40.2175
36.4469
33.6362
31.7738
30.8466
30.8466
31.7738
33.6362
36.4468
40.2174
44.9508
50.6319
57.2199
64.6418
72.7891
81.5181
90.6542
100
-300
-300
-300
-300
-300
-300
-300
-300
-300
-300
-300
-300
-300
-300
100
96.5948
93.2328
89.9497
86.766
83.6797
80.657
77.6224
74.4478
70.9502
66.9336
62.3723
57.8297
53.8171
50.6778
48.6287
47.8096
48.3112
50.1898
53.4736
58.1637
64.2332
71.6206
80.2122
89.7993
100
-300
-300
-300
-300
-300
-300
-300
-300
-300
-300
100
90.6496
81.5089
72.7756
64.6242
57.1986
50.6074
44.9234
40.1878
36.4153
33.6033
31.7399
30.8122
30.8122
31.7399
33.6032
36.4153
40.1877
44.9234
50.6073
57.1986
64.6242
72.7756
81.5089
90.6495
100
-300
-300
-300
-300
-300
-300
-300
-300
-300
-300
-300
-300
-300
-300
100
97.6766
95.3801
93.1313
90.9392
88.7928
86.6505
84.4221
81.9356
78.8808
74.7472
69.0038
63.1275
57.9315
53.7887
50.8828
49.3183
49.1614
50.4544
53.2212
57.4706
63.1998
70.3975
79.0356
89.0189
100
-300
-300
-300
-300
-300
-300
-300
-300
-300
-300
100
90.6467
81.5033
72.7673
64.6135
57.1856
50.5923
44.9067
40.1695
36.3959
33.583
31.7191
30.7912
30.7912
31.7191
33.583
36.3959
40.1695
44.9066
50.5922
57.1855
64.6134
72.7672
81.5032
90.6467
100
-300
-300
-300
-300
-300
-300
-300
-300
-300
-300
-300
-300
-300
-300
100
98.8217
97.656
96.5125
95.3935
94.2894
93.1701
91.9666
90.5261
88.4831
84.8495
76.5754
68.687
62.0547
56.8228
53.0269
50.6928
49.8453
50.5046
52.6847
56.3962
61.6564
68.51
77.0664
87.5311
100
-300
-300
-300
-300
-300
-300
-300
-300
-300
-300
100
90.645
81.4999
72.7623
64.607
57.1778
50.5833
44.8966
40.1586
36.3843
33.5709
31.7066
30.7785
30.7785
31.7065
33.5708
36.3842
40.1585
44.8964
50.5831
57.1776
64.6069
72.7622
81.4998
90.645
100
-300
-300
-300
-300
-300
-300
-300
-300
-300
-300
-300
-300
-300
-300
100
100
100
100
100
100
100
100
100
100
100
84.3741
73.7985
65.7487
59.5206
54.9029
51.8339
50.2994
50.2982
51.8305
54.8974
59.5132
65.7398
73.789
84.3663
100
100
100
100
100
100
100
100
100
100
100
100
90.644
81.4979
72.7593
64.6032
57.1731
50.5779
44.8906
40.1521
36.3774
33.5637
31.6992
30.771
30.7709
31.6991
33.5635
36.3772
40.1519
44.8904
50.5777
57.1729
64.6029
72.7592
81.4977
90.6439
100
-300
-300
-300
-300
-300
-300
-300
-300
-300
-300
-300
-300
-300
-300
-300
-300
-300
-300
-300
-300
-300
-300
-300
-300
100
87.5315
77.0655
68.5065
61.6498
56.3865
52.6719
50.489
49.8271
50.6723
53.0044
56.7988
62.0298
68.6622
76.5519
84.829
88.4642
90.5085
91.9505
93.1557
94.277
95.3832
96.5046
97.6506
98.8189
100
100
90.6434
81.4967
72.7576
64.6009
57.1704
50.5748
44.8872
40.1483
36.3734
33.5595
31.6948
30.7665
30.7665
31.6947
33.5592
36.373
40.1479
44.8867
50.5743
57.17
64.6005
72.7573
81.4965
90.6433
100
-300
-300
-300
-300
-300
-300
-300
-300
-300
-300
-300
-300
-300
-300
-300
-300
-300
-300
-300
-300
-300
-300
-300
-300
100
89.014
79.0253
70.3815
63.1782
57.4435
53.1892
50.418
49.1212
49.275
50.8371
53.7414
57.8833
63.0795
68.9569
74.7025
78.8385
81.896
84.3857
86.618
88.7646
90.9159
93.1134
95.3679
97.6704
100
100
90.6431
81.4961
72.7567
64.5997
57.1689
50.573
44.8852
40.1462
36.371
33.557
31.6923
30.7639
30.7638
31.692
33.5566
36.3704
40.1454
44.8843
50.5722
57.1681
64.5989
72.756
81.4956
90.6428
100
-300
-300
-300
-300
-300
-300
-300
-300
-300
-300
-300
-300
-300
-300
-300
-300
-300
-300
-300
-300
-300
-300
-300
-300
100
89.7885
80.1908
71.5887
64.1913
58.1127
53.4144
50.1236
48.2389
47.7327
48.5483
50.5949
53.7332
57.7459
62.2899
66.8538
70.8741
74.3763
77.5567
80.5981
83.6287
86.7239
89.9172
93.2108
96.5837
100
100
90.6429
81.4957
72.7561
64.599
57.168
50.572
44.884
40.1449
36.3697
33.5555
31.6907
30.7623
30.7621
31.6902
33.5547
36.3685
40.1436
44.8825
50.5705
57.1665
64.5976
72.755
81.4949
90.6424
100
-300
-300
-300
-300
-300
-300
-300
-300
-300
-300
-300
-300
-300
-300
-300
-300
-300
-300
-300
-300
-300
-300
-300
-300
100
90.2183
80.8801
72.3307
64.8087
58.4688
53.4047
49.6629
47.2511
46.1424
46.276
47.5543
49.8361
52.9241
56.5549
60.4135
64.2216
67.9133
71.5458
75.2082
78.9764
82.8971
86.9849
91.2256
95.5818
100
100
90.6428
81.4955
72.7558
64.5985
57.1675
50.5714
44.8833
40.1441
36.3688
33.5545
31.6896
30.761
30.7607
31.6887
33.5531
36.3668
40.1418
44.8807
50.5687
57.1649
64.5961
72.7538
81.494
90.642
100
-300
-300
-300
-300
-300
-300
-300
-300
-300
-300
-300
-300
-300
-300
-300
-300
-300
-300
-300
-300
-300
-300
-300
-300
100
90.4614
81.2795
72.7606
65.1423
58.5942
53.2265
49.0988
46.227
44.5884
44.125
44.7448
46.321
48.6918
51.6643
55.0362
58.6428
62.4135
66.3507
70.4888
74.8626
79.4892
84.3607
89.4434
94.6808
100
100
90.6427
81.4953
72.7556
64.5983
57.1672
50.571
44.8828
40.1435
36.3681
33.5537
31.6886
30.7598
30.7593
31.687
33.5512
36.3647
40.1395
44.8783
50.5663
57.1626
64.5941
72.7522
81.4929
90.6414
100
-300
-300
-300
-300
-300
-300
-300
-300
-300
-300
-300
-300
-300
-300
-300
-300
-300
-300
-300
-300
-300
-300
-300
-300
100
90.5964
81.4998
72.9865
65.2837
58.5633
52.9428
48.4893
45.2253
43.134
42.1643
42.2355
43.241
45.0534
47.5328
50.5438
53.9792
57.7803
61.9309
66.4361
71.3022
76.522
82.0659
87.8804
93.8893
100
100
90.6427
81.4953
72.7555
64.5981
57.167
50.5707
44.8824
40.1429
36.3673
33.5527
31.6873
30.7582
30.7574
31.6847
33.5485
36.3616
40.1361
44.8748
50.5627
57.1591
64.591
72.7496
81.491
90.6405
100
-300
-300
-300
-300
-300
-300
-300
-300
-300
-300
-300
-300
-300
-300
-300
-300
-300
-300
-300
-300
-300
-300
-300
-300
100
90.6666
81.6094
73.0826
65.302
58.4368
52.6062
47.8814
44.29
41.8212
40.4325
40.056
40.6051
41.9813
44.0833
46.8179
50.1127
53.9229
58.2279
63.0181
68.2817
73.9925
80.1025
86.5396
93.2094
100
100
90.6426
81.4952
72.7554
64.5979
57.1667
50.5703
44.8819
40.1422
36.3663
33.5514
31.6856
30.756
30.7545
31.6812
33.5443
36.3569
40.1309
44.8692
50.557
57.1536
64.586
72.7455
81.4881
90.6389
100
-300
-300
-300
-300
-300
-300
-300
-300
-300
-300
-300
-300
-300
-300
-300
-300
-300
-300
-300
-300
-300
-300
-300
-300
100
90.6976
81.6513
73.0992
65.2473
58.2601
52.2562
47.3089
43.4494
40.6725
38.9441
38.2085
38.3963
39.4323
41.2427
43.7632
46.9446
50.7547
55.1739
60.1861
65.768
71.8794
78.4574
85.4139
92.6378
100
100
90.6426
81.4951
72.7552
64.5977
57.1664
50.5698
44.8811
40.1412
36.3649
33.5494
31.6829
30.7525
30.7501
31.6759
33.5379
36.3495
40.1226
44.8603
50.548
57.1449
64.5781
72.7389
81.4834
90.6365
100
-300
-300
-300
-300
-300
-300
-300
-300
-300
-300
-300
-300
-300
-300
-300
-300
-300
-300
-300
-300
-300
-300
-300
-300
100
90.7053
81.653
73.0697
65.1536
58.0645
51.9195
46.7926
42.7176
39.6942
37.6955
36.6764
36.5816
37.3536
38.939
41.2937
44.3851
48.1914
52.6963
57.881
63.7152
70.1487
77.1068
84.4882
92.1672
100
100
90.6425
81.495
72.7551
64.5974
57.1659
50.5691
44.8801
40.1397
36.3627
33.5464
31.6789
30.7473
30.7435
31.6676
33.528
36.338
40.1097
44.8465
50.5338
57.1311
64.5655
72.7285
81.476
90.6326
100
-300
-300
-300
-300
-300
-300
-300
-300
-300
-300
-300
-300
-300
-300
-300
-300
-300
-300
-300
-300
-300
-300
-300
-300
100
90.6992
81.6314
73.0153
65.0426
57.8695
51.6112
46.3418
42.097
38.8803
36.6707
35.4314
35.1186
35.6878
37.1008
39.328
42.3491
46.1507
50.7203
56.0383
62.0701
68.7587
76.0201
83.7422
91.7877
100
100
90.6425
81.4949
72.7548
64.597
57.1652
50.5681
44.8786
40.1374
36.3595
33.542
31.673
30.7394
30.7334
31.6551
33.5129
36.3204
40.0899
44.8251
50.5118
57.1096
64.546
72.7123
81.4643
90.6265
100
-300
-300
-300
-300
-300
-300
-300
-300
-300
-300
-300
-300
-300
-300
-300
-300
-300
-300
-300
-300
-300
-300
-300
-300
100
90.6849
81.5965
72.9478
64.9263
57.6849
51.3372
45.9569
41.5811
38.2159
35.845
34.4382
33.9598
34.3757
35.6583
37.7887
40.7561
44.5534
49.1717
54.5918
60.7765
67.6638
75.1628
83.1531
91.4878
100
100
90.6424
81.4946
72.7544
64.5964
57.1642
50.5666
44.8763
40.1342
36.3549
33.5355
31.6642
30.7278
30.7185
31.6364
33.4903
36.2939
40.0601
44.7927
50.4782
57.0767
64.5159
72.6872
81.4463
90.617
100
-300
-300
-300
-300
-300
-300
-300
-300
-300
-300
-300
-300
-300
-300
-300
-300
-300
-300
-300
-300
-300
-300
-300
-300
100
90.665
81.5529
72.8728
64.8092
57.5128
51.0956
45.6311
41.1566
37.6804
35.1893
33.6579
33.0566
33.3588
34.5447
36.6033
39.5305
43.3246
47.9796
53.4771
59.7783
66.8178
74.4997
82.6971
91.2555
100
100
90.6423
81.4943
72.7539
64.5955
57.1629
50.5645
44.8732
40.1295
36.3482
33.5262
31.6515
30.711
30.6967
31.6092
33.4571
36.2548
40.0157
44.7443
50.4278
57.0271
64.4702
72.649
81.4187
90.6026
100
-300
-300
-300
-300
-300
-300
-300
-300
-300
-300
-300
-300
-300
-300
-300
-300
-300
-300
-300
-300
-300
-300
-300
-300
100
90.6402
81.5012
72.7903
64.69
57.3493
50.8793
45.3524
40.8062
37.2498
34.6722
33.0512
32.3616
32.5818
33.698
35.7049
38.6033
42.3956
47.0783
52.6338
59.0225
66.1768
73.9969
82.351
91.0792
100
100
90.6421
81.4939
72.7532
64.5943
57.161
50.5615
44.8687
40.123
36.3389
33.5131
31.6336
30.6871
30.6657
31.57
33.4092
36.198
39.9508
44.6732
50.3533
56.9532
64.402
72.5916
81.3771
90.5807
100
-300
-300
-300
-300
-300
-300
-300
-300
-300
-300
-300
-300
-300
-300
-300
-300
-300
-300
-300
-300
-300
-300
-300
-300
100
90.6091
81.4387
72.6958
64.5622
57.1857
50.6762
45.1052
40.5096
36.8986
34.2623
32.5802
31.8301
31.9942
33.0624
35.0337
37.9128
41.7049
46.4087
52.0073
58.4609
65.7002
73.6228
82.0935
90.9479
100
100
90.6418
81.4934
72.7522
64.5927
57.1584
50.5576
44.8627
40.1141
36.326
33.4951
31.6087
30.6538
30.6222
31.5148
33.3412
36.117
39.8576
44.5702
50.2446
56.8448
64.301
72.5061
81.3149
90.5479
100
-300
-300
-300
-300
-300
-300
-300
-300
-300
-300
-300
-300
-300
-300
-300
-300
-300
-300
-300
-300
-300
-300
-300
-300
100
90.5686
81.3596
72.581
64.415
57.0087
50.4707
44.8709
40.2449
36.6011
33.9292
32.2097
31.4222
31.5509
32.5889
34.5379
37.4054
41.1992
45.9193
51.5499
58.0511
65.3524
73.3499
81.9056
90.8521
100
100
90.6415
81.4927
72.7509
64.5905
57.155
50.5523
44.8547
40.1022
36.3088
33.4706
31.575
30.6083
30.5625
31.4386
33.2467
36.0035
39.726
44.4235
50.0886
56.6876
64.1535
72.3804
81.2228
90.4991
100
-300
-300
-300
-300
-300
-300
-300
-300
-300
-300
-300
-300
-300
-300
-300
-300
-300
-300
-300
-300
-300
-300
-300
-300
100
90.5138
81.2543
72.4328
64.2327
56.8007
50.2436
44.6288
39.9893
36.3317
33.6445
31.908
31.1022
31.2131
32.2355
34.1732
37.036
40.8334
45.5669
51.2214
57.7571
65.1032
73.1543
81.771
90.7835
100
100
90.6411
81.4917
72.7492
64.5878
57.1506
50.5454
44.8442
40.0866
36.2861
33.4384
31.5302
30.5476
30.4823
31.3355
33.1179
35.8475
39.5434
44.218
49.8676
56.4628
63.9402
72.1968
81.0872
90.4269
100
-300
-300
-300
-300
-300
-300
-300
-300
-300
-300
-300
-300
-300
-300
-300
-300
-300
-300
-300
-300
-300
-300
-300
-300
100
90.4371
81.1089
72.2326
63.994
56.5391
49.9718
44.3554
39.719
36.0658
33.382
31.6467
30.8399
30.948
31.9673
33.9033
36.7674
40.5706
45.3157
50.9885
57.5495
64.9275
73.0166
81.6763
90.7353
100
100
90.6406
81.4906
72.7471
64.5843
57.145
50.5366
44.8308
40.0667
36.2569
33.3967
31.472
30.4683
30.3768
31.1988
32.9457
35.637
39.2946
43.9348
49.5593
56.145
63.6347
71.9304
80.8884
90.3203
100
-300
-300
-300
-300
-300
-300
-300
-300
-300
-300
-300
-300
-300
-300
-300
-300
-300
-300
-300
-300
-300
-300
-300
-300
100
90.3271
80.903
71.9544
63.6704
56.1954
49.6279
44.0249
39.4095
35.7795
33.1178
31.4015
30.6095
30.7286
31.7562
33.6989
36.5697
40.3813
45.1374
50.8249
57.4045
64.8054
72.9212
81.6107
90.7019
100
100
90.64
81.4892
72.7446
64.58
57.1381
50.5258
44.8143
40.0417
36.2203
33.3441
31.3982
30.367
30.2412
31.0216
32.7204
35.3587
38.9617
43.5511
49.1355
55.701
63.2008
71.5458
80.597
90.1622
100
-300
-300
-300
-300
-300
-300
-300
-300
-300
-300
-300
-300
-300
-300
-300
-300
-300
-300
-300
-300
-300
-300
-300
-300
100
90.1667
80.6066
71.5614
63.224
55.7337
49.1797
43.609
39.0355
35.45
32.8305
31.1511
30.3897
30.5332
31.5795
33.537
36.42
40.2426
45.01
50.7099
57.3039
64.7213
72.8559
81.566
90.6792
100
100
90.6392
81.4875
72.7416
64.575
57.1299
50.5128
44.7941
40.0114
36.1755
33.2794
31.3067
30.2406
30.0707
30.797
32.4321
34.9986
38.5254
43.0403
48.5616
55.0882
62.5891
70.9914
80.1681
89.9257
100
-300
-300
-300
-300
-300
-300
-300
-300
-300
-300
-300
-300
-300
-300
-300
-300
-300
-300
-300
-300
-300
-300
-300
-300
100
89.9286
80.1742
71.0014
62.6039
55.109
48.5896
43.0769
38.5719
35.056
32.5012
30.8783
30.1638
30.3448
31.4204
33.4002
36.3007
40.1373
44.9169
50.6283
57.2339
64.6636
72.8114
81.5357
90.6638
100
100
90.6384
81.4857
72.7382
64.5692
57.1203
50.4976
44.7705
39.9754
36.122
33.2016
31.1961
30.0869
29.8616
30.5192
32.0717
34.5431
37.9657
42.3741
47.798
54.2535
61.7329
70.1918
79.5302
89.5646
100
-300
-300
-300
-300
-300
-300
-300
-300
-300
-300
-300
-300
-300
-300
-300
-300
-300
-300
-300
-300
-300
-300
-300
-300
100
89.5664
79.534
70.1981
61.7422
54.2664
47.8154
42.3967
37.9944
34.5785
32.1144
30.5693
29.919
30.151
31.2661
33.276
36.199
40.0529
44.846
50.5687
57.1844
64.6238
72.7812
81.5154
90.6536
100
100
90.6375
81.4837
72.7345
64.5627
57.1096
50.4803
44.7434
39.9339
36.0599
33.1108
31.0661
29.9047
29.6118
30.1843
31.6327
33.9812
37.2646
41.5242
46.8017
53.1338
60.5448
69.0364
78.5653
88.9939
100
-300
-300
-300
-300
-300
-300
-300
-300
-300
-300
-300
-300
-300
-300
-300
-300
-300
-300
-300
-300
-300
-300
-300
-300
100
88.995
78.5677
69.0402
60.5504
53.1416
46.8123
41.5379
37.282
34.0027
31.6585
30.2146
29.6465
29.9434
31.1084
33.1557
36.1065
39.9807
44.7891
50.5233
57.1484
64.5958
72.7605
81.5016
90.6467
100
100
90.6367
81.4817
72.7306
64.5559
57.0981
50.4615
44.7134
39.8875
35.99
33.0076
30.9173
29.6947
29.3216
29.7916
31.1125
33.3068
36.4102
40.468
45.5327
51.6613
58.9159
67.3644
77.0708
88.0383
100
-300
-300
-300
-300
-300
-300
-300
-300
-300
-300
-300
-300
-300
-300
-300
-300
-300
-300
-300
-300
-300
-300
-300
-300
100
88.0389
77.0722
67.3667
58.9193
51.666
45.539
40.4762
36.4205
33.3196
31.1278
29.8096
29.3422
29.7177
30.9424
33.0343
36.0176
39.9153
44.7405
50.487
57.1211
64.5756
72.7461
81.4923
90.6422
100
100
90.636
81.4799
72.7271
64.5494
57.0865
50.4419
44.6816
39.8376
35.9137
32.8941
30.7522
29.4597
28.9942
29.3446
30.5142
32.5218
35.4005
39.1958
43.9648
49.778
56.7291
64.9576
74.692
86.2878
100
-300
-300
-300
-300
-300
-300
-300
-300
-300
-300
-300
-300
-300
-300
-300
-300
-300
-300
-300
-300
-300
-300
-300
-300
100
86.2882
74.6928
64.959
56.731
49.7807
43.9685
39.2006
35.4065
32.5292
30.5231
29.355
29.0062
29.4731
30.7668
32.9096
35.9298
39.8538
44.6975
50.4568
57.0999
64.5608
72.7361
81.4862
90.6392
100
100
90.6357
81.4788
72.7245
64.5438
57.0758
50.4229
44.6497
39.7863
35.8339
32.7736
30.575
29.2052
28.6365
28.8518
29.8483
31.6383
34.2486
37.7189
42.1014
47.4635
53.9015
61.5794
70.8472
82.6379
100
100
100
100
100
100
100
100
100
100
100
100
100
100
100
100
100
100
100
100
100
100
100
100
100
100
82.6381
70.8477
61.5802
53.9026
47.4651
42.1035
37.7217
34.2521
31.6426
29.8535
28.8578
28.6434
29.2129
30.5833
32.7825
35.8431
39.7955
44.6588
50.4315
57.0835
64.5503
72.7297
81.4824
90.6375
100
100
90.636
81.479
72.7237
64.5405
57.0677
50.4066
44.6202
39.7365
35.7542
32.651
30.392
28.9394
28.2591
28.3274
29.1332
30.6803
32.9854
36.0768
39.9914
44.774
50.4778
57.1682
64.9136
73.6792
82.6379
86.2877
88.0381
88.9936
89.5642
89.9249
90.1609
90.318
90.4232
90.4929
90.5378
90.5645
90.577
90.577
90.5645
90.5378
90.4929
90.4232
90.318
90.1609
89.9249
89.5642
88.9936
88.0381
86.2877
82.6379
73.6793
64.9139
57.1686
50.4785
44.7749
39.9926
36.0783
32.9873
30.6827
29.1361
28.3307
28.263
28.9437
30.3967
32.656
35.7594
39.7417
44.6253
50.4114
57.0721
64.5442
72.7266
81.481
90.637
100
100
90.6374
81.4814
72.7261
64.5413
57.0646
50.3958
44.5966
39.6927
35.6802
32.5329
30.2117
28.673
27.8764
27.79
28.3941
29.6817
31.6577
34.3352
37.7311
41.8598
46.7235
52.2932
58.4609
64.9136
70.8471
74.6918
77.0705
78.5649
79.5293
80.1666
80.5945
80.8841
81.08
81.2109
81.2956
81.3461
81.3697
81.3697
81.3461
81.2956
81.2109
81.08
80.8841
80.5945
80.1666
79.5293
78.5649
77.0705
74.6919
70.8472
64.9137
58.461
52.2935
46.7238
41.8603
37.7318
34.3361
31.6588
29.6831
28.3957
27.7919
27.8785
28.6754
30.2143
32.5357
35.683
39.6956
44.5994
50.3984
57.067
64.5434
72.7277
81.4825
90.6379
100
100
90.6406
81.4874
72.7338
64.5491
57.0698
50.3947
44.5838
39.6608
35.6188
32.428
30.0448
28.4198
27.5057
27.2626
27.6614
28.6842
30.323
32.5755
35.4393
38.9025
42.9314
47.4479
52.2932
57.1681
61.5793
64.9574
67.364
69.0358
70.1907
70.9893
71.5422
71.9244
72.1867
72.3637
72.4791
72.5483
72.5806
72.5806
72.5483
72.4791
72.3637
72.1867
71.9244
71.5422
70.9893
70.1907
69.0358
67.364
64.9574
61.5793
57.1682
52.2933
47.4481
42.9315
38.9028
35.4396
32.576
30.3236
28.6849
27.6623
27.2636
27.5068
28.421
30.0462
32.4295
35.6203
39.6624
44.5854
50.3962
57.0711
64.5502
72.7347
81.488
90.6409
100
100
90.6467
81.499
72.7499
64.5677
57.0883
50.4092
44.5889
39.6488
35.5793
32.3472
29.9043
28.1956
27.1671
26.7709
26.9687
27.7322
29.0413
30.8802
33.2309
36.0643
39.3282
42.9313
46.7234
50.4777
53.9013
56.7288
58.9155
60.544
61.7315
62.5866
63.1965
63.6274
63.928
64.1333
64.2683
64.3497
64.3879
64.3879
64.3497
64.2683
64.1333
63.928
63.6274
63.1965
62.5866
61.7315
60.544
58.9155
56.7288
53.9014
50.4778
46.7235
42.9314
39.3283
36.0644
33.2311
30.8804
29.0416
27.7326
26.9692
26.7715
27.1677
28.1962
29.905
32.348
35.5802
39.6496
44.5897
50.41
57.089
64.5683
72.7503
81.4994
90.6468
100
100
90.657
81.5192
72.7785
64.6029
57.1271
50.4476
44.6211
39.6674
35.574
32.3045
29.8063
28.0193
26.8831
26.3425
26.3507
26.8698
27.8696
29.3236
31.2028
33.4689
36.0643
38.9025
41.8597
44.7739
47.4634
49.7777
51.6608
53.1329
54.2519
55.0855
55.6962
56.1368
56.4492
56.6653
56.8087
56.8957
56.9367
56.9367
56.8957
56.8087
56.6653
56.4492
56.1368
55.6962
55.0855
54.2519
53.1329
51.6608
49.7777
47.4634
44.7739
41.8598
38.9025
36.0643
33.469
31.2029
29.3237
27.8698
26.87
26.3509
26.3428
26.8834
28.0196
29.8067
32.3049
35.5745
39.6678
44.6215
50.448
57.1275
64.6032
72.7787
81.5193
90.6571
100
100
90.6738
81.5519
72.8257
64.6624
57.1957
50.5208
44.6933
39.7308
35.6187
32.3174
29.7704
27.913
26.6791
26.0069
25.8422
26.1392
26.8593
27.968
29.43
31.2028
33.2309
35.4392
37.7311
39.9913
42.1012
43.9645
45.5322
46.8008
47.7964
48.5587
49.1305
49.5509
49.8536
50.0655
50.2074
50.294
50.335
50.335
50.294
50.2074
50.0655
49.8536
49.5509
49.1305
48.5587
47.7964
46.8008
45.5322
43.9645
42.1012
39.9913
37.7311
35.4393
33.2309
31.2029
29.43
27.9681
26.8593
26.1393
25.8423
26.0071
26.6792
27.9131
29.7706
32.3176
35.619
39.731
44.6935
50.521
57.1959
64.6626
72.8259
81.5519
90.6738
100
100
90.6996
81.6027
72.8997
64.7569
57.307
50.6442
44.8225
39.858
35.734
32.4081
29.8207
27.9028
26.5836
25.7957
25.4786
25.5801
26.0554
26.8644
27.968
29.3235
30.8802
32.5755
34.3352
36.0767
37.7188
39.1955
40.4675
41.5233
42.3724
43.0375
43.5461
43.9265
44.2042
44.4009
44.5337
44.6154