# vtk DataFile Version 2.0
LBE two cylinders
ASCII
DATASET STRUCTURED_POINTS
DIMENSIONS 76 76 1
ASPECT_RATIO 1 1 1
ORIGIN 0 0 0
POINT_DATA 5776
SCALARS temp double 1
LOOKUP_TABLE default
100
100
100
100
100
100
100
100
100
100
100
100
100
100
100
100
100
100
100
100
100
100
100
100
100
100
-300
-300
-300
-300
-300
-300
-300
-300
-300
-300
-300
-300
-300
-300
100
100
100
100
100
100
100
100
100
100
100
100
100
100
100
100
100
100
100
100
100
100
100
100
100
100
-300
-300
-300
-300
-300
-300
-300
-300
-300
-300
100
99.0288
98.0775
97.1648
96.3079
95.5213
94.8169
94.2036
93.6875
93.2724
92.9604
92.7522
92.6482
92.6482
92.7522
92.9604
93.2724
93.6875
94.2036
94.8169
95.5213
96.3079
97.1648
98.0775
99.0288
100
-300
-300
-300
-300
-300
-300
-300
-300
-300
-300
-300
-300
-300
-300
100
99.0327
98.0851
97.1759
96.322
95.5379
94.8354
94.2234
93.7079
93.2929
92.9804
92.7713
92.6659
92.6643
92.7665
92.9728
93.2829
93.6962
94.2106
94.8225
95.5256
96.311
97.167
98.0789
99.0295
100
-300
-300
-300
-300
-300
-300
-300
-300
-300
-300
100
98.0764
96.1919
94.3841
92.6867
91.1287
89.7334
88.5185
87.4962
86.6741
86.056
85.6438
85.4377
85.4377
85.6438
86.056
86.6741
87.4962
88.5185
89.7334
91.1287
92.6867
94.3841
96.1919
98.0764
100
-300
-300
-300
-300
-300
-300
-300
-300
-300
-300
-300
-300
-300
-300
100
98.0849
96.2088
94.4086
92.7178
91.1653
89.7743
88.5623
87.5415
86.7194
86.1003
85.6859
85.4768
85.4732
85.6753
86.0834
86.6973
87.5155
88.5341
89.7457
91.1381
92.6937
94.389
96.195
98.0778
100
-300
-300
-300
-300
-300
-300
-300
-300
-300
-300
100
97.1601
94.3782
91.7093
89.2034
86.9032
84.8434
83.0499
81.5407
80.3269
79.4146
78.8059
78.5017
78.5017
78.8059
79.4146
80.3269
81.5407
83.0499
84.8434
86.9032
89.2034
91.7093
94.3782
97.1601
100
-300
-300
-300
-300
-300
-300
-300
-300
-300
-300
-300
-300
-300
-300
100
97.1751
94.4076
91.7521
89.2579
86.9674
84.915
83.1265
81.6199
80.4064
79.4921
78.8797
78.5702
78.5639
78.8612
79.4625
80.3676
81.5744
83.0771
84.8649
86.9197
89.2155
91.7177
94.3835
97.1627
100
-300
-300
-300
-300
-300
-300
-300
-300
-300
-300
100
96.2957
92.6669
89.1856
85.9169
82.9167
80.2299
77.8904
75.9218
74.3387
73.1486
72.3547
71.9578
71.9578
72.3547
73.1486
74.3387
75.9218
77.8904
80.2299
82.9167
85.9169
89.1856
92.6669
96.2957
100
-300
-300
-300
-300
-300
-300
-300
-300
-300
-300
-300
-300
-300
-300
100
96.32
92.7147
89.255
86.0053
83.0208
80.346
78.0148
76.0503
74.4675
73.2743
72.4744
72.069
72.0587
72.4442
73.2262
74.4044
75.9763
77.9344
80.2645
82.9431
85.9364
89.1992
92.6754
96.2998
100
-300
-300
-300
-300
-300
-300
-300
-300
-300
-300
100
95.4957
91.0834
86.8503
82.8758
79.2276
75.9606
73.116
70.7224
68.7973
67.3503
66.385
65.9024
65.9024
66.385
67.3503
68.7973
70.7224
73.116
75.9606
79.2276
82.8758
86.8503
91.0834
95.4957
100
-300
-300
-300
-300
-300
-300
-300
-300
-300
-300
-300
-300
-300
-300
100
95.5338
91.158
86.9588
83.014
79.3905
76.1424
73.3105
70.9234
68.999
67.547
66.5722
66.0762
66.0601
66.5248
67.4714
68.8999
70.8072
73.1845
76.0144
79.2687
82.9059
86.8712
91.0965
95.502
100
-300
-300
-300
-300
-300
-300
-300
-300
-300
-300
100
94.7697
89.6461
84.7307
80.1155
75.8793
72.0857
68.7826
66.0032
63.7679
62.0876
60.9667
60.4063
60.4063
60.9667
62.0876
63.7679
66.0032
68.7826
72.0857
75.8793
80.1155
84.7307
89.6461
94.7697
100
-300
-300
-300
-300
-300
-300
-300
-300
-300
-300
-300
-300
-300
-300
100
94.8278
89.7601
84.8964
80.3266
76.1281
72.3635
69.0799
66.3105
64.0761
62.3883
61.2528
60.6719
60.6472
61.1801
62.2723
63.9241
66.1322
68.8866
72.1672
75.9413
80.1609
84.7621
89.6657
94.7791
100
-300
-300
-300
-300
-300
-300
-300
-300
-300
-300
100
94.1233
88.3665
82.8436
77.6581
72.8984
68.636
64.9247
61.8018
59.2903
57.4023
56.143
55.5134
55.5134
56.143
57.4023
59.2903
61.8018
64.9247
68.636
72.8984
77.6581
82.8436
88.3665
94.1233
100
-300
-300
-300
-300
-300
-300
-300
-300
-300
-300
-300
-300
-300
-300
100
94.2105
88.5375
83.092
77.9746
73.2716
69.0527
65.3708
62.263
59.7528
57.8537
56.5722
55.9117
55.8744
56.4626
57.6787
59.5237
61.9942
65.0794
68.7569
72.9901
77.725
82.8899
88.3953
94.1371
100
-300
-300
-300
-300
-300
-300
-300
-300
-300
-300
100
93.5588
87.249
81.1957
75.5121
70.2952
65.6234
61.5557
58.1329
55.3802
53.3109
51.9306
51.2406
51.2406
51.9306
53.3109
55.3802
58.1329
61.5557
65.6234
70.2952
75.5121
81.1957
87.249
93.5588
100
-300
-300
-300
-300
-300
-300
-300
-300
-300
-300
-300
-300
-300
-300
100
93.6873
87.5011
81.5619
75.9788
70.8455
66.238
62.2138
58.8133
56.0626
53.9767
52.5637
51.8278
51.7724
52.4011
53.7172
55.7228
58.4148
61.7817
65.7996
70.4284
75.6089
81.2623
87.2904
93.5786
100
-300
-300
-300
-300
-300
-300
-300
-300
-300
-300
100
93.0752
86.2917
79.784
73.6737
68.0652
63.0428
58.6698
54.99
52.0306
49.8061
48.3222
47.5804
47.5804
48.3222
49.8061
52.0306
54.99
58.6698
63.0428
68.0652
73.6737
79.784
86.2917
93.0752
100
-300
-300
-300
-300
-300
-300
-300
-300
-300
-300
-300
-300
-300
-300
100
93.2615
86.6572
80.315
74.3506
68.8636
63.9346
59.6248
55.9777
53.0214
50.7726
49.2409
48.4321
48.3512
49.0033
50.3935
52.525
55.3958
58.9941
63.2948
68.2549
73.811
79.878
86.35
93.103
100
-300
-300
-300
-300
-300
-300
-300
-300
-300
-300
100
92.6689
85.4873
78.5977
72.1288
66.1913
60.8741
56.2445
52.3489
49.2159
46.8609
45.29
44.5046
44.5046
45.29
46.8609
49.2159
52.3489
56.2445
60.8741
66.1913
72.1288
78.5977
85.4873
92.6689
100
-300
-300
-300
-300
-300
-300
-300
-300
-300
-300
-300
-300
-300
-300
100
92.9346
86.0087
79.3554
73.0951
67.3313
62.1479
57.609
53.7601
50.6315
48.2416
46.6019
45.7203
45.6038
46.2599
47.6961
49.9173
52.923
56.7019
61.228
66.4564
72.3197
78.7276
85.5674
92.7069
100
-300
-300
-300
-300
-300
-300
-300
-300
-300
-300
100
92.3338
84.8241
77.6196
70.8552
64.6463
59.0862
54.2451
50.1715
46.8954
44.4328
42.7901
41.9689
41.9689
42.7901
44.4328
46.8954
50.1715
54.2451
59.0862
64.6463
70.8552
77.6196
84.8241
92.3338
100
-300
-300
-300
-300
-300
-300
-300
-300
-300
-300
-300
-300
-300
-300
100
92.7069
85.5564
78.6841
72.2129
66.2487
60.8771
56.1641
52.1567
48.8867
46.3748
44.6346
43.6768
43.5114
44.1493
45.6008
47.874
50.9699
54.8786
59.5741
65.0096
71.1151
77.7954
84.9317
92.3847
100
-300
-300
-300
-300
-300
-300
-300
-300
-300
-300
100
92.0629
84.2876
76.8285
69.825
63.3967
57.6401
52.6279
48.4103
45.0185
42.4689
40.7682
39.9179
39.9179
40.7682
42.4689
45.0185
48.4103
52.6279
57.6401
63.3967
69.825
76.8285
84.2876
92.0629
100
-300
-300
-300
-300
-300
-300
-300
-300
-300
-300
-300
-300
-300
-300
100
92.5786
85.3001
78.3005
71.7033
65.6142
60.1196
55.2856
51.1603
47.777
45.1585
43.3214
42.28
42.0486
42.6423
44.0759
46.3608
49.5015
53.4897
58.2999
63.8847
70.1713
77.0608
84.4287
92.1291
100
-300
-300
-300
-300
-300
-300
-300
-300
-300
-300
100
91.8478
83.8619
76.2007
69.0074
62.405
56.4924
51.3445
47.0127
43.529
40.9103
39.1636
38.2903
38.2903
39.1636
40.9103
43.529
47.0127
51.3445
56.4924
62.405
69.0074
76.2007
83.8619
91.8478
100
-300
-300
-300
-300
-300
-300
-300
-300
-300
-300
-300
-300
-300
-300
100
92.5496
85.24
78.2051
71.5661
65.4272
59.8732
54.9697
50.7648
47.2929
44.5792
42.6443
41.5071
41.1876
41.7069
43.0853
45.3396
48.4781
52.4955
57.3676
63.0468
69.4584
76.4999
84.0418
91.9317
100
-300
-300
-300
-300
-300
-300
-300
-300
-300
-300
100
91.6803
83.5304
75.7118
68.3708
61.6327
55.5987
50.3451
45.9243
42.3691
39.6967
37.9141
37.0229
37.0229
37.9141
39.6967
42.3691
45.9243
50.3451
55.5987
61.6327
68.3708
75.7118
83.5304
91.6803
100
-300
-300
-300
-300
-300
-300
-300
-300
-300
-300
-300
-300
-300
-300
100
92.6208
85.3776
78.3996
71.8036
65.6898
60.1399
55.217
50.9684
47.4293
44.6276
42.5885
41.3375
40.9021
41.3111
42.5927
44.7704
47.8579
51.8539
56.7364
62.4583
68.9435
76.0864
83.7525
91.7828
100
-300
-300
-300
-300
-300
-300
-300
-300
-300
-300
100
91.5523
83.277
75.3382
67.8842
61.0425
54.9158
49.5814
45.0927
41.4828
38.7693
36.9593
36.0544
36.0544
36.9593
38.7693
41.4828
45.0927
49.5814
54.9158
61.0425
67.8842
75.3382
83.277
91.5523
100
-300
-300
-300
-300
-300
-300
-300
-300
-300
-300
-300
-300
-300
-300
100
92.7936
85.7157
78.8883
72.4213
66.4087
60.9265
56.034
51.7761
48.1881
45.3009
43.1455
41.7558
41.1693
41.4257
42.563
44.6137
47.5986
51.5216
56.3639
62.0796
68.592
75.7923
83.5411
91.6723
100
-300
-300
-300
-300
-300
-300
-300
-300
-300
-300
100
91.4564
83.087
75.058
67.5194
60.6
54.4037
49.0086
44.469
40.8182
38.0739
36.2433
35.3282
35.3282
36.2433
38.0739
40.8182
44.469
49.0086
54.4037
60.6
67.5194
75.058
83.087
91.4564
100
-300
-300
-300
-300
-300
-300
-300
-300
-300
-300
-300
-300
-300
-300
100
93.07
86.2584
79.6776
73.428
67.5946
62.2457
57.4342
53.2008
49.5798
46.6048
44.314
42.7526
41.9715
42.0246
42.9633
44.8311
47.6581
51.4546
56.2063
61.8693
68.3666
75.587
83.3858
91.5888
100
-300
-300
-300
-300
-300
-300
-300
-300
-300
-300
100
91.3857
82.9472
74.8518
67.2508
60.2742
54.0267
48.5871
44.01
40.329
37.562
35.7164
34.7937
34.7937
35.7164
37.562
40.329
44.01
48.5871
54.0267
60.2742
67.2508
74.8518
82.9472
91.3857
100
-300
-300
-300
-300
-300
-300
-300
-300
-300
-300
-300
-300
-300
-300
100
93.4522
87.0106
80.775
74.8342
69.2618
64.1153
59.4383
55.2643
51.6244
48.5543
46.1012
44.3248
43.295
43.0843
43.7615
45.3843
47.9936
51.6078
56.2179
61.7831
68.2272
75.4369
83.2621
91.5194
100
-300
-300
-300
-300
-300
-300
-300
-300
-300
-300
100
91.3347
82.8462
74.7028
67.0568
60.0389
53.7544
48.2826
43.6783
39.9756
37.1923
35.3357
34.4075
34.4075
35.3357
37.1923
39.9756
43.6783
48.2826
53.7544
60.0389
67.0568
74.7028
82.8462
91.3347
100
-300
-300
-300
-300
-300
-300
-300
-300
-300
-300
-300
-300
-300
-300
100
93.9421
87.9761
82.1876
76.6511
71.4261
66.5566
62.0727
57.9967
54.3521
51.1748
48.522
46.4745
45.1281
44.5813
44.9247
46.2331
48.5601
51.933
56.3493
61.7725
68.1285
75.3031
83.1411
91.4486
100
-300
-300
-300
-300
-300
-300
-300
-300
-300
-300
100
91.2985
82.7745
74.5971
66.9192
59.872
53.5613
48.0666
43.4432
39.725
36.93
35.0657
34.1337
34.1337
35.0657
36.93
39.725
43.4432
48.0666
53.5613
59.872
66.9192
74.5971
82.7745
91.2985
100
-300
-300
-300
-300
-300
-300
-300
-300
-300
-300
-300
-300
-300
-300
100
94.5403
89.1567
83.9193
78.8866
74.1018
69.5919
65.3688
61.4371
57.8051
54.5031
51.5998
49.2067
47.4582
46.4884
46.4151
47.3326
49.3078
52.3774
56.546
61.7826
68.0175
75.1383
82.9863
91.3561
100
-300
-300
-300
-300
-300
-300
-300
-300
-300
-300
100
91.2733
82.7246
74.5235
66.8235
59.7558
53.4268
47.9163
43.2795
39.5505
36.7475
34.8778
33.943
33.943
34.8778
36.7475
39.5505
43.2794
47.9163
53.4268
59.7558
66.8234
74.5235
82.7246
91.2733
100
-300
-300
-300
-300
-300
-300
-300
-300
-300
-300
-300
-300
-300
-300
100
95.2449
90.5496
85.968
81.542
77.2972
73.2405
69.3607
65.6344
62.0417
58.5931
55.3668
52.5259
50.2656
48.7686
48.1854
48.6297
50.1803
52.882
56.7464
61.7498
67.8304
74.8823
82.7486
91.2135
100
-300
-300
-300
-300
-300
-300
-300
-300
-300
-300
100
91.2561
82.6905
74.4733
66.758
59.6764
53.3349
47.8135
43.1675
39.4312
36.6227
34.7493
33.8127
33.8127
34.7493
36.6227
39.4312
43.1675
47.8135
53.3349
59.6764
66.7579
74.4732
82.6905
91.256
100
-300
-300
-300
-300
-300
-300
-300
-300
-300
-300
-300
-300
-300
-300
100
96.0504
92.145
88.3218
84.6068
81.0086
77.513
74.0811
70.6497
67.146
63.5282
59.8674
56.4299
53.514
51.3673
50.173
50.0597
51.1125
53.3808
56.8818
61.6006
67.4884
74.4552
82.3573
90.977
100
-300
-300
-300
-300
-300
-300
-300
-300
-300
-300
100
91.2445
82.6676
74.4395
66.714
59.6231
53.2732
47.7445
43.0924
39.3512
36.5389
34.6631
33.7252
33.7252
34.6631
36.5389
39.3511
43.0924
47.7445
53.2732
59.6231
66.714
74.4395
82.6676
91.2445
100
-300
-300
-300
-300
-300
-300
-300
-300
-300
-300
-300
-300
-300
-300
100
96.9469
93.9237
90.9548
88.0528
85.2121
82.4015
79.5539
76.5567
73.2482
69.455
65.1613
60.8949
57.134
54.1995
52.2935
51.5438
52.031
53.8023
56.8776
61.252
66.8955
73.7481
81.7037
90.5707
100
-300
-300
-300
-300
-300
-300
-300
-300
-300
-300
100
91.2369
82.6525
74.4173
66.6851
59.588
53.2326
47.6991
43.0429
39.2984
36.4837
34.6062
33.6676
33.6676
34.6062
36.4837
39.2983
43.0428
47.699
53.2325
59.5879
66.685
74.4172
82.6525
91.2368
100
-300
-300
-300
-300
-300
-300
-300
-300
-300
-300
-300
-300
-300
-300
100
97.9188
95.8556
93.8238
91.827
89.8528
87.8625
85.7746
83.4341
80.5589
76.6825
71.3183
65.8364
60.9926
57.135
54.4351
52.9893
52.8571
54.0746
56.6598
60.6165
65.9384
72.612
80.6103
89.8458
100
-300
-300
-300
-300
-300
-300
-300
-300
-300
-300
100
91.2319
82.6428
74.4029
66.6663
59.5652
53.2062
47.6696
43.0108
39.2642
36.448
34.5694
33.6302
33.6302
34.5693
36.4479
39.2641
43.0107
47.6694
53.206
59.565
66.6661
74.4027
82.6427
91.2319
100
-300
-300
-300
-300
-300
-300
-300
-300
-300
-300
-300
-300
-300
-300
100
98.9451
97.8985
96.8658
95.847
94.8319
93.7925
92.6661
91.3134
89.3989
86.0109
78.3299
71.005
64.8443
59.9842
56.4596
54.2955
53.5146
54.1344
56.1658
59.6162
64.4989
70.853
78.7782
88.4639
100
-300
-300
-300
-300
-300
-300
-300
-300
-300
-300
100
91.2288
82.6366
74.3937
66.6544
59.5507
53.1895
47.6509
42.9904
39.2425
36.4252
34.5459
33.6064
33.6064
34.5458
36.425
39.2422
42.9901
47.6506
53.1891
59.5504
66.6541
74.3935
82.6364
91.2287
100
-300
-300
-300
-300
-300
-300
-300
-300
-300
-300
-300
-300
-300
-300
100
100
100
100
100
100
100
100
100
100
100
85.543
75.7478
68.285
62.5066
58.2194
55.3683
53.9417
53.9392
55.361
58.2075
62.4907
68.2661
75.728
85.527
100
100
100
100
100
100
100
100
100
100
100
100
91.2268
82.6327
74.388
66.6469
59.5417
53.179
47.6392
42.9777
39.2289
36.4109
34.5312
33.5914
33.5914
34.531
36.4106
39.2284
42.9771
47.6386
53.1784
59.5411
66.6464
74.3875
82.6324
91.2267
100
-300
-300
-300
-300
-300
-300
-300
-300
-300
-300
-300
-300
-300
-300
-300
-300
-300
-300
-300
-300
-300
-300
-300
-300
100
88.4656
78.7778
70.8479
64.488
59.5991
56.1424
54.1049
53.4796
54.2556
56.4156
59.9369
64.7952
70.956
78.2839
85.9713
89.3625
91.2799
92.6355
93.7652
94.8083
95.8275
96.8509
97.8884
98.94
100
100
91.2256
82.6303
74.3844
66.6423
59.5361
53.1725
47.6319
42.9698
39.2204
36.4021
34.5221
33.5821
33.582
34.5217
36.4015
39.2196
42.9688
47.6309
53.1715
59.5351
66.6414
74.3837
82.6298
91.2254
100
-300
-300
-300
-300
-300
-300
-300
-300
-300
-300
-300
-300
-300
-300
-300
-300
-300
-300
-300
-300
-300
-300
-300
-300
100
89.8375
80.5925
72.5838
65.8997
60.5675
56.6012
54.0074
52.7824
52.9082
54.3491
57.0456
60.9015
65.7456
71.23
76.5987
80.4799
83.3605
85.7073
87.8024
89.8009
91.7842
93.7909
95.8333
97.9076
100
100
91.2249
82.6288
74.3823
66.6395
59.5327
53.1686
47.6275
42.9649
39.2152
36.3965
34.5163
33.5762
33.576
34.5157
36.3956
39.2139
42.9633
47.6258
53.1668
59.531
66.638
74.381
82.6279
91.2244
100
-300
-300
-300
-300
-300
-300
-300
-300
-300
-300
-300
-300
-300
-300
-300
-300
-300
-300
-300
-300
-300
-300
-300
-300
100
90.5521
81.6664
73.6924
66.8221
61.162
56.7726
53.6841
51.9015
51.4052
52.1481
54.0495
56.9818
60.7431
65.0123
69.3112
73.1114
76.4288
79.4367
82.2967
85.1217
87.9782
90.8976
93.8849
96.9273
100
100
91.2245
82.628
74.381
66.6378
59.5307
53.1662
47.6248
42.9619
39.2119
36.393
34.5126
33.5723
33.572
34.5116
36.3914
39.2097
42.9592
47.6218
53.1632
59.5277
66.6352
74.3788
82.6264
91.2237
100
-300
-300
-300
-300
-300
-300
-300
-300
-300
-300
-300
-300
-300
-300
-300
-300
-300
-300
-300
-300
-300
-300
-300
-300
100
90.9453
82.2945
74.3622
67.367
61.4531
56.7107
53.1894
50.904
49.8375
49.9406
51.1282
53.2717
56.188
59.6294
63.2976
66.9262
70.4437
73.8921
77.3442
80.8627
84.4867
88.2295
92.0824
96.0188
100
100
91.2242
82.6274
74.3802
66.6368
59.5294
53.1647
47.623
42.9599
39.2097
36.3906
34.5099
33.5694
33.5688
34.5082
36.3878
39.206
42.9555
47.6182
53.1597
59.5245
66.6324
74.3766
82.6249
91.2229
100
-300
-300
-300
-300
-300
-300
-300
-300
-300
-300
-300
-300
-300
-300
-300
-300
-300
-300
-300
-300
-300
-300
-300
-300
100
91.1635
82.6495
74.7361
67.64
61.5191
56.4796
52.584
49.8562
48.2849
47.8251
48.3983
49.8906
52.1515
54.9983
58.2357
61.7006
65.3147
69.0673
72.9783
77.0707
81.3553
85.8247
90.4524
95.1958
100
100
91.224
82.6271
74.3797
66.6361
59.5285
53.1636
47.6217
42.9584
39.2079
36.3885
34.5075
33.5666
33.5657
34.5047
36.384
39.2019
42.9512
47.6138
53.1554
59.5205
66.6289
74.3738
82.6229
91.2218
100
-300
-300
-300
-300
-300
-300
-300
-300
-300
-300
-300
-300
-300
-300
-300
-300
-300
-300
-300
-300
-300
-300
-300
-300
100
91.2796
82.835
74.9153
67.7275
61.4314
56.1402
51.9246
48.8157
46.8093
45.8687
45.9269
46.8898
48.6392
51.0412
53.9613
57.2879
60.9521
64.9238
69.1941
73.7583
78.6034
83.7019
89.0093
94.4659
100
100
91.2239
82.6269
74.3793
66.6356
59.5278
53.1627
47.6206
42.957
39.2061
36.3863
34.5048
33.5634
33.5619
34.5003
36.379
39.1964
42.9453
47.6077
53.1494
59.5149
66.6239
74.3697
82.62
91.2203
100
-300
-300
-300
-300
-300
-300
-300
-300
-300
-300
-300
-300
-300
-300
-300
-300
-300
-300
-300
-300
-300
-300
-300
-300
100
91.3343
82.9151
74.9702
67.6957
61.2486
55.7444
51.2581
47.827
45.4539
44.1113
43.7457
44.2823
45.6302
47.691
50.3687
53.5825
57.2752
61.4106
65.9649
70.915
76.2298
81.8642
87.7568
93.8314
100
100
91.2238
82.6267
74.379
66.6351
59.5271
53.1618
47.6194
42.9553
39.204
36.3836
34.5014
33.5591
33.5567
34.4942
36.3719
39.1885
42.9368
47.5988
53.1405
59.5064
66.6163
74.3635
82.6156
91.2181
100
-300
-300
-300
-300
-300
-300
-300
-300
-300
-300
-300
-300
-300
-300
-300
-300
-300
-300
-300
-300
-300
-300
-300
-300
100
91.3518
82.9306
74.9488
67.5928
61.0153
55.3317
50.6195
46.9205
44.2438
42.5713
41.862
42.0579
43.0902
44.8861
47.3758
50.4993
54.2096
58.4705
63.2504
68.5147
74.2185
80.3023
86.69
93.2903
100
100
91.2237
82.6264
74.3786
66.6345
59.5263
53.1606
47.6178
42.9531
39.2011
36.3798
34.4965
33.553
33.5492
34.4852
36.3616
39.1769
42.9241
47.5855
53.1271
59.4936
66.6049
74.3542
82.609
91.2146
100
-300
-300
-300
-300
-300
-300
-300
-300
-300
-300
-300
-300
-300
-300
-300
-300
-300
-300
-300
-300
-300
-300
-300
-300
100
91.3471
82.9078
74.8832
67.4522
60.763
54.9298
50.0315
46.1132
43.1898
41.2509
40.2665
40.1925
40.9774
42.5671
44.9106
47.9627
51.685
56.0433
61.0027
66.5209
72.5431
78.9983
85.7979
92.8373
100
100
91.2236
82.6262
74.3782
66.6338
59.5253
53.1591
47.6156
42.9501
39.197
36.3744
34.4895
33.5442
33.5383
34.4721
36.3463
39.1595
42.9051
47.5655
53.1069
59.4743
66.5876
74.34
82.5989
91.2094
100
-300
-300
-300
-300
-300
-300
-300
-300
-300
-300
-300
-300
-300
-300
-300
-300
-300
-300
-300
-300
-300
-300
-300
-300
100
91.3293
82.863
74.7941
67.2953
60.5114
54.5551
49.5057
45.411
42.2904
40.1399
38.9384
38.6532
39.2455
40.6756
42.9059
45.9022
49.6335
54.0682
59.1698
64.8914
71.1709
77.9283
85.0648
92.4648
100
100
91.2234
82.6258
74.3775
66.6328
59.5238
53.157
47.6125
42.9459
39.1913
36.3667
34.4795
33.5314
33.5225
34.453
36.3239
39.1341
42.8771
47.5359
53.0769
59.4455
66.5616
74.3186
82.5836
91.2014
100
-300
-300
-300
-300
-300
-300
-300
-300
-300
-300
-300
-300
-300
-300
-300
-300
-300
-300
-300
-300
-300
-300
-300
-300
100
91.3039
82.8058
74.6932
67.1344
60.2711
54.2146
49.0447
44.8107
41.5353
39.2198
37.85
37.4016
37.846
39.1539
41.2975
44.2514
47.9899
52.4845
57.6981
63.5809
70.0657
77.0653
84.473
92.1639
100
100
91.2232
82.6253
74.3767
66.6315
59.5218
53.154
47.6083
42.94
39.1831
36.3558
34.4652
33.5132
33.4998
34.4256
36.2915
39.0971
42.8363
47.4925
53.0328
59.4029
66.5231
74.2868
82.5609
91.1896
100
-300
-300
-300
-300
-300
-300
-300
-300
-300
-300
-300
-300
-300
-300
-300
-300
-300
-300
-300
-300
-300
-300
-300
-300
100
91.2735
82.7408
74.5859
66.974
60.0447
53.908
48.6436
44.3017
40.9077
38.4665
36.9688
36.3971
36.73
37.9459
40.0247
42.947
46.6921
51.2336
56.5348
62.544
69.1901
76.3811
84.0034
91.925
100
100
91.2229
82.6246
74.3755
66.6297
59.519
53.1499
47.6025
42.9318
39.1719
36.3407
34.4454
33.4878
33.468
34.3868
36.2455
39.0443
42.7777
47.4299
52.9687
59.3407
66.4666
74.2399
82.5273
91.172
100
-300
-300
-300
-300
-300
-300
-300
-300
-300
-300
-300
-300
-300
-300
-300
-300
-300
-300
-300
-300
-300
-300
-300
-300
100
91.2383
82.6684
74.4722
66.8129
59.8287
53.6286
48.2917
43.8689
40.3867
37.8525
36.2609
35.5987
35.8499
36.9986
39.0303
41.9304
45.6818
50.2602
55.6294
61.7366
68.508
75.8476
83.637
91.7386
100
100
91.2225
82.6237
74.374
66.6272
59.5153
53.1445
47.5946
42.9207
39.1567
36.3201
34.4182
33.4527
33.4239
34.3328
36.1812
38.97
42.6947
47.3406
52.8768
59.2509
66.3846
74.1717
82.4782
91.1463
100
-300
-300
-300
-300
-300
-300
-300
-300
-300
-300
-300
-300
-300
-300
-300
-300
-300
-300
-300
-300
-300
-300
-300
-300
100
91.1972
82.5859
74.3475
66.6446
59.6143
53.3647
47.9741
43.4931
39.9485
37.3493
35.6919
34.9665
35.1606
36.2627
38.2621
41.148
44.906
49.5137
54.9355
61.1177
67.985
75.4385
83.356
91.5956
100
100
91.2219
82.6225
74.372
66.6241
59.5105
53.1373
47.5843
42.9061
39.1363
36.2925
34.3816
33.4053
33.364
34.2589
36.0927
38.867
42.5788
47.2151
52.7467
59.123
66.267
74.0731
82.4069
91.1089
100
-300
-300
-300
-300
-300
-300
-300
-300
-300
-300
-300
-300
-300
-300
-300
-300
-300
-300
-300
-300
-300
-300
-300
-300
100
91.1469
82.487
74.2031
66.4579
59.3881
53.1006
47.6724
43.1529
39.5684
36.9279
35.2288
34.4632
34.6211
35.6937
37.6733
40.5519
44.3174
48.9488
54.4111
60.6505
67.5904
75.1298
83.144
91.4876
100
100
91.2212
82.6211
74.3694
66.62
59.5042
53.1281
47.5708
42.8869
39.1097
36.2562
34.3333
33.3423
33.2838
34.1595
35.9727
38.7265
42.4195
47.041
52.5647
58.9424
66.0996
73.9317
82.3042
91.0547
100
-300
-300
-300
-300
-300
-300
-300
-300
-300
-300
-300
-300
-300
-300
-300
-300
-300
-300
-300
-300
-300
-300
-300
-300
100
91.0824
82.3624
74.0258
66.2369
59.1321
52.8167
47.3654
42.8253
39.2209
36.5602
34.8406
34.0547
34.1942
35.252
37.2228
40.1005
43.8748
48.526
54.02
60.3027
67.297
74.9005
82.9865
91.4075
100
100
91.2204
82.6192
74.3662
66.6148
59.4964
53.1163
47.5537
42.8625
39.0755
36.2095
34.2706
33.2603
33.1788
34.0283
35.8132
38.5379
42.2037
46.803
52.3132
58.6903
65.8634
73.7304
82.1565
90.9764
100
-300
-300
-300
-300
-300
-300
-300
-300
-300
-300
-300
-300
-300
-300
-300
-300
-300
-300
-300
-300
-300
-300
-300
-300
100
90.9962
82.198
73.797
65.9602
58.8235
52.4894
47.029
42.4857
38.8806
36.2196
34.4989
33.7108
33.8477
34.9039
36.8755
39.7582
43.5431
48.2119
53.731
60.0468
67.0817
74.7325
82.8713
91.3489
100
100
91.2194
82.6169
74.3623
66.6085
59.4867
53.1018
47.5324
42.8319
39.0326
36.1504
34.1911
33.1554
33.0436
33.8582
35.6046
38.2891
41.916
46.482
51.9698
58.3416
65.5324
73.4447
81.9449
90.8633
100
-300
-300
-300
-300
-300
-300
-300
-300
-300
-300
-300
-300
-300
-300
-300
-300
-300
-300
-300
-300
-300
-300
-300
-300
100
90.8772
81.9737
73.491
65.5994
58.4334
52.0909
46.6368
42.1086
38.5227
35.8812
34.1781
33.4049
33.554
34.6206
36.6021
39.4955
43.2935
47.9788
53.5188
59.8601
66.9253
74.6109
82.7881
91.3066
100
100
91.2181
82.6142
74.3576
66.601
59.475
53.0842
47.5065
42.7946
38.9799
36.0774
34.0921
33.0241
32.8732
33.642
35.3369
37.9665
41.5387
46.0555
51.507
57.8641
65.0716
73.0403
81.6408
90.6992
100
-300
-300
-300
-300
-300
-300
-300
-300
-300
-300
-300
-300
-300
-300
-300
-300
-300
-300
-300
-300
-300
-300
-300
-300
100
90.7086
81.6605
73.0718
65.1171
57.9262
51.5886
46.1597
41.6681
38.1231
35.5221
33.8559
33.1145
33.2903
34.3789
36.3789
39.2888
43.1026
47.8045
53.3626
59.7243
66.8125
74.5236
82.7286
91.2764
100
100
91.2168
82.6112
74.3522
66.5922
59.4613
53.0634
47.4758
42.75
38.9165
35.9892
33.9718
32.8632
32.6627
33.3727
35.0003
37.5563
41.0526
45.4977
50.8911
57.2164
64.4332
72.4676
81.201
90.4579
100
-300
-300
-300
-300
-300
-300
-300
-300
-300
-300
-300
-300
-300
-300
-300
-300
-300
-300
-300
-300
-300
-300
-300
-300
100
90.4642
81.2142
72.4887
64.4635
57.2577
50.9453
45.5666
41.138
37.6595
35.1222
33.5134
32.8214
33.0381
34.1601
36.1871
39.1193
42.9523
47.6715
53.2463
59.6251
66.7312
74.4613
82.6863
91.2551
100
100
91.2152
82.6078
74.3461
66.5823
59.4457
53.0396
47.4402
42.6981
38.8421
35.885
33.8286
32.6705
32.4086
33.0446
34.5859
37.0451
40.4382
44.7808
50.0838
56.3473
63.5532
71.6544
80.5573
90.0953
100
-300
-300
-300
-300
-300
-300
-300
-300
-300
-300
-300
-300
-300
-300
-300
-300
-300
-300
-300
-300
-300
-300
-300
-300
100
90.0995
80.5659
71.6682
63.573
56.3742
50.1191
44.8256
40.4936
37.112
34.6648
33.1357
32.5112
32.7836
33.9503
36.0129
38.9732
42.8288
47.5667
53.1578
59.5516
66.6722
74.4167
82.6564
91.24
100
100
91.2137
82.6042
74.3397
66.5716
59.4287
53.0132
47.4003
42.6392
38.7572
35.765
33.6626
32.4453
32.1091
32.6543
34.0875
36.4225
39.6784
43.8778
49.0437
55.1962
62.3475
70.4943
79.5964
89.53
100
-300
-300
-300
-300
-300
-300
-300
-300
-300
-300
-300
-300
-300
-300
-300
-300
-300
-300
-300
-300
-300
-300
-300
-300
100
89.5327
79.602
70.5032
62.3603
55.2134
49.0663
43.9064
39.7137
36.4651
34.1378
32.7122
32.1744
32.5172
33.74
35.8464
38.8406
42.7223
47.4807
53.0884
59.496
66.6288
74.3846
82.6351
91.2294
100
100
91.2121
82.6007
74.3333
66.5607
59.4107
52.9849
47.3569
42.5745
38.663
35.6307
33.4751
32.1889
31.7651
32.2015
33.5032
35.683
38.7618
42.7672
47.7326
53.6981
60.712
68.8335
78.1243
88.5942
100
-300
-300
-300
-300
-300
-300
-300
-300
-300
-300
-300
-300
-300
-300
-300
-300
-300
-300
-300
-300
-300
-300
-300
-300
100
88.5959
78.1279
68.8391
60.7201
53.709
47.7468
42.7852
38.784
35.7097
33.5347
32.2378
31.8059
32.2338
33.5235
35.6816
38.7151
42.6265
47.4073
53.032
59.4529
66.5965
74.3614
82.6201
91.222
100
100
91.2109
82.5978
74.3275
66.5503
59.3931
52.9562
47.3119
42.506
38.5618
35.4848
33.2695
31.9049
31.3807
31.6909
32.837
34.8294
37.6875
41.44
46.1255
51.7974
58.534
66.4627
75.8012
86.8953
100
-300
-300
-300
-300
-300
-300
-300
-300
-300
-300
-300
-300
-300
-300
-300
-300
-300
-300
-300
-300
-300
-300
-300
-300
100
86.8964
75.8034
66.4662
58.539
51.8041
46.1343
41.4511
37.7012
34.8459
32.8564
31.7132
31.4059
31.9326
33.2993
35.5161
38.5939
42.538
47.3429
52.9852
59.4191
66.5723
74.3449
82.6097
91.217
100
100
91.2103
82.596
74.3234
66.5419
59.3774
52.9291
47.2677
42.4369
38.4575
35.332
33.0513
31.6004
30.9643
31.1322
32.1006
33.8748
36.4692
39.908
44.2262
49.4744
55.7337
63.1542
72.0691
83.3751
100
100
100
100
100
100
100
100
100
100
100
100
100
100
100
100
100
100
100
100
100
100
100
100
100
100
83.3758
72.0705
63.1563
55.7368
49.4785
44.2315
39.9148
36.4775
33.8848
32.1124
31.1458
30.9796
31.6172
33.0693
35.3509
38.4769
42.4563
47.2864
52.9467
59.3932
66.5552
74.3339
82.6033
91.214
100
100
91.2108
82.5964
74.3224
66.5373
59.3662
52.9067
47.228
42.3715
38.3553
35.1788
32.8286
31.2853
30.5284
30.5413
31.3139
32.8441
35.1382
38.2104
42.0822
46.783
52.353
58.8474
66.3291
74.7668
83.3751
86.8951
88.5939
89.5295
90.0945
90.4565
90.6969
90.8597
90.9705
91.0454
91.0943
91.1238
91.1377
91.1377
91.1238
91.0943
91.0454
90.9705
90.8597
90.6969
90.4565
90.0945
89.5295
88.594
86.8952
83.3752
74.7673
66.33
58.8487
52.3548
46.7855
42.0854
38.2145
35.1432
32.85
31.3209
30.5494
30.5375
31.2953
32.8393
35.1901
38.3669
42.3831
47.2391
52.9172
59.3756
66.5453
74.3286
82.6007
91.213
100
100
91.2131
82.6002
74.3264
66.5393
59.3628
52.8932
47.1978
42.3159
38.2627
35.0339
32.6121
30.9728
30.0897
29.9394
30.5041
31.7732
33.7423
36.4126
39.7873
43.8676
48.645
54.0845
60.0789
66.3291
72.069
75.8009
78.1238
79.5955
80.5557
81.1984
81.6364
81.9378
82.1452
82.2862
82.3789
82.4349
82.4613
82.4613
82.4349
82.3789
82.2862
82.1452
81.9378
81.6364
81.1984
80.5557
79.5955
78.1238
75.801
72.0691
66.3294
60.0794
54.0853
48.6461
43.869
39.7892
36.415
33.7452
31.7767
30.5083
29.9441
30.095
30.9787
32.6184
35.0405
38.2695
42.3227
47.2043
52.8994
59.3683
66.544
74.3301
82.6028
91.2144
100
100
91.218
82.6095
74.3384
66.5517
59.372
52.8943
47.184
42.2782
38.189
34.9086
32.4154
30.6795
29.6686
29.3523
29.7047
30.7057
32.3402
34.5957
37.4578
40.9037
44.8907
49.3365
54.0845
58.8473
63.154
66.4622
68.8327
70.493
71.6521
72.4639
73.0341
73.4347
73.7143
73.9064
74.0336
74.1108
74.1473
74.1473
74.1108
74.0336
73.9064
73.7143
73.4347
73.0341
72.4639
71.6521
70.493
68.8327
66.4623
63.1541
58.8475
54.0848
49.3369
44.8913
40.9046
37.4589
34.597
32.3419
30.7077
29.7071
29.355
29.6717
30.6829
32.419
34.9125
38.1929
42.2821
47.1878
52.8978
59.3752
66.5543
74.3405
82.6109
91.2188
100
100
91.2271
82.6267
74.3623
66.5796
59.4002
52.9177
47.1956
42.2686
38.1462
34.817
32.2549
30.425
29.289
28.8095
28.9527
29.6895
30.9945
32.8434
35.2083
38.0502
41.3093
44.8906
48.645
52.3528
55.7334
58.5334
60.7111
62.3459
63.5504
64.4285
65.064
65.5201
65.8437
66.0686
66.2187
66.3104
66.3538
66.3538
66.3104
66.2187
66.0686
65.8437
65.5201
65.064
64.4285
63.5504
62.3459
60.7111
58.5335
55.7335
52.3529
48.6451
44.8909
41.3097
38.0507
35.2089
32.8442
30.9955
29.6906
28.9541
28.811
29.2907
30.4269
32.2569
34.8192
38.1484
42.2709
47.1977
52.9197
59.402
66.5811
74.3635
82.6275
91.2275
100
100
91.2419
82.6555
74.4033
66.63
59.4561
52.9736
47.2443
42.3008
38.1497
34.7762
32.1503
30.2321
28.9777
28.3431
28.2872
28.773
29.7662
31.2335
33.1375
35.4312
38.0502
40.9037
43.8675
46.7828
49.4741
51.7968
53.697
55.1943
56.3441
57.2112
57.8555
58.3278
58.6682
58.9077
59.069
59.1681
59.2153
59.2153
59.1681
59.069
58.9077
58.6682
58.3278
57.8555
57.2112
56.3441
55.1943
53.697
51.7968
49.4741
46.7829
43.8676
40.9038
38.0504
35.4315
33.1379
31.2339
29.7668
28.7736
28.288
28.3439
28.9786
30.2332
32.1514
34.7774
38.1509
42.302
47.2455
52.9747
59.4571
66.6308
74.4039
82.656
91.2421
100
100
91.2649
82.7005
74.4684
66.712
59.5508
53.0752
47.3453
42.3917
38.2183
34.8074
32.1251
30.1272
28.7645
27.9874
27.7483
28.0034
28.7117
29.8331
31.3251
33.1375
35.2082
37.4577
39.7872
42.082
44.2258
46.1249
47.7315
49.0418
50.0805
50.8856
51.4979
51.9552
52.2899
52.5282
52.6901
52.7903
52.8381
52.8381
52.7903
52.6901
52.5282
52.2899
51.9552
51.4979
50.8856
50.0805
49.0418
47.7315
46.1249
44.2258
42.082
39.7872
37.4578
35.2084
33.1377
31.3252
29.8334
28.712
28.0038
27.7487
27.9878
28.765
30.1278
32.1257
34.8081
38.219
42.3923
47.3459
53.0758
59.5513
66.7125
74.4687
82.7008
91.265
100
100
91.2992
82.7679
74.5666
66.8375
59.6988
53.2394
47.5178
42.5626
38.3756
34.9362
32.2072
30.1406
28.6827
27.779
27.3768
27.4265
27.8822
28.6995
29.8331
31.2335
32.8434
34.5956
36.4125
38.2102
39.9077
41.4393
42.766
43.8758
44.7775
45.4922
46.0465
46.4674
46.7797
47.0046
47.1587
47.2547