# vtk DataFile Version 2.0
LBE two cylinders
ASCII
DATASET STRUCTURED_POINTS
DIMENSIONS 76 76 1
ASPECT_RATIO 1 1 1
ORIGIN 0 0 0
POINT_DATA 5776
SCALARS temp double 1
LOOKUP_TABLE default
100
100
100
100
100
100
100
100
100
100
100
100
100
100
100
100
100
100
100
100
100
100
100
100
100
100
-300
-300
-300
-300
-300
-300
-300
-300
-300
-300
-300
-300
-300
-300
100
100
100
100
100
100
100
100
100
100
100
100
100
100
100
100
100
100
100
100
100
100
100
100
100
100
-300
-300
-300
-300
-300
-300
-300
-300
-300
-300
100
98.4521
96.9515
95.5412
94.2566
93.1226
92.1532
91.3519
90.7136
90.2272
89.8792
89.6561
89.5474
89.5474
89.6561
89.8792
90.2272
90.7136
91.3519
92.1532
93.1226
94.2566
95.5412
96.9515
98.4521
100
-300
-300
-300
-300
-300
-300
-300
-300
-300
-300
-300
-300
-300
-300
100
98.4523
96.952
95.542
94.2575
93.1236
92.1543
91.3531
90.7148
90.2284
89.8803
89.6571
89.5483
89.5481
89.6567
89.8797
90.2276
90.7138
91.3521
92.1533
93.1227
94.2566
95.5413
96.9515
98.4521
100
-300
-300
-300
-300
-300
-300
-300
-300
-300
-300
100
96.9513
93.9958
91.2183
88.6881
86.4547
84.5454
82.9672
81.7101
80.7522
80.0668
79.6274
79.4133
79.4133
79.6274
80.0668
80.7522
81.7101
82.9672
84.5454
86.4547
88.6881
91.2183
93.9958
96.9513
100
-300
-300
-300
-300
-300
-300
-300
-300
-300
-300
-300
-300
-300
-300
100
96.952
93.9971
91.2201
88.6904
86.4573
84.5483
82.9703
81.7131
80.7551
80.0695
79.6298
79.4155
79.4152
79.6289
80.068
80.7532
81.7108
82.9678
84.5458
86.4549
88.6883
91.2184
93.9959
96.9513
100
-300
-300
-300
-300
-300
-300
-300
-300
-300
-300
100
95.5405
91.2174
87.1545
83.4536
80.1866
77.3939
75.0855
73.2466
71.8456
70.8431
70.2003
69.8872
69.8872
70.2003
70.8431
71.8456
73.2466
75.0855
77.3939
80.1866
83.4536
87.1545
91.2174
95.5405
100
-300
-300
-300
-300
-300
-300
-300
-300
-300
-300
-300
-300
-300
-300
100
95.5419
91.22
87.1583
83.4583
80.1922
77.4
75.0918
73.2529
71.8517
70.8487
70.2055
69.8917
69.8911
70.2035
70.8456
71.8476
73.2481
75.0866
77.3947
80.1871
83.4539
87.1547
91.2175
95.5406
100
-300
-300
-300
-300
-300
-300
-300
-300
-300
-300
100
94.2546
88.6849
83.4505
78.6824
74.4735
70.8757
67.9017
65.5327
63.7278
62.4362
61.6082
61.2049
61.2049
61.6082
62.4362
63.7278
65.5327
67.9017
70.8757
74.4735
78.6824
83.4505
88.6849
94.2546
100
-300
-300
-300
-300
-300
-300
-300
-300
-300
-300
-300
-300
-300
-300
100
94.2573
88.6901
83.458
78.6919
74.4845
70.8876
67.9141
65.5451
63.7398
62.4475
61.6184
61.2138
61.2125
61.6146
62.4413
63.7318
65.5357
67.9039
70.8772
74.4746
78.6831
83.4509
88.6851
94.2547
100
-300
-300
-300
-300
-300
-300
-300
-300
-300
-300
100
93.1181
86.4465
80.1768
74.4655
69.4241
65.1147
61.5526
58.715
56.5533
55.0063
54.0146
53.5315
53.5315
54.0146
55.0063
56.5533
58.715
61.5526
65.1147
69.4241
74.4655
80.1768
86.4465
93.1181
100
-300
-300
-300
-300
-300
-300
-300
-300
-300
-300
-300
-300
-300
-300
100
93.1232
86.4565
80.1911
74.4836
69.445
65.1375
61.5763
58.7388
56.5763
55.0279
54.0342
53.5487
53.5462
54.0268
55.0161
56.5609
58.7208
61.5567
65.1176
69.4261
74.4667
80.1775
86.4469
93.1183
100
-300
-300
-300
-300
-300
-300
-300
-300
-300
-300
100
92.1439
84.5279
77.3707
70.8511
65.0962
60.1769
56.1107
52.8717
50.4041
48.6384
47.5064
46.9549
46.9549
47.5064
48.6384
50.4041
52.8717
56.1107
60.1769
65.0962
70.8511
77.3707
84.5279
92.1439
100
-300
-300
-300
-300
-300
-300
-300
-300
-300
-300
-300
-300
-300
-300
100
92.1534
84.5465
77.3974
70.8847
65.1351
60.2194
56.155
52.9161
50.4471
48.6786
47.5429
46.9871
46.9824
47.5291
48.6566
50.4183
52.8824
56.1184
60.1822
65.0997
70.8533
77.372
84.5286
92.1442
100
-300
-300
-300
-300
-300
-300
-300
-300
-300
-300
100
91.334
82.9329
75.0379
67.8463
61.4983
56.072
51.5869
48.0142
45.2925
43.3449
42.0963
41.4881
41.4881
42.0963
43.3449
45.2925
48.0142
51.5869
56.072
61.4983
67.8463
75.0379
82.9329
91.334
100
-300
-300
-300
-300
-300
-300
-300
-300
-300
-300
-300
-300
-300
-300
100
91.3513
82.9667
75.0865
67.9074
61.5691
56.1493
51.6676
48.0951
45.3708
43.4182
42.1629
41.5467
41.5382
42.1378
43.3781
45.3183
48.0336
51.6008
56.0816
61.5046
67.8502
75.0401
82.9341
91.3345
100
-300
-300
-300
-300
-300
-300
-300
-300
-300
-300
100
90.6809
81.6467
73.1567
65.4232
58.5969
52.7619
47.939
44.0973
41.1707
39.0765
37.734
37.08
37.08
37.734
39.0765
41.1707
44.0973
47.939
52.7619
58.5969
65.4232
73.1567
81.6467
90.6809
100
-300
-300
-300
-300
-300
-300
-300
-300
-300
-300
-300
-300
-300
-300
100
90.7115
81.7065
73.2427
65.5314
58.7224
52.899
48.0821
44.2409
41.3097
39.2068
37.8523
37.1842
37.169
37.8076
39.1355
41.2164
44.1315
47.9635
52.7787
58.6078
65.4298
73.1604
81.6486
90.6817
100
-300
-300
-300
-300
-300
-300
-300
-300
-300
-300
100
90.1699
80.6403
71.6848
63.5273
56.3269
50.1722
45.0851
41.033
37.9461
35.7373
34.3213
33.6316
33.6316
34.3213
35.7373
37.9461
41.033
45.0851
50.1722
56.3269
63.5273
71.6848
80.6403
90.1699
100
-300
-300
-300
-300
-300
-300
-300
-300
-300
-300
-300
-300
-300
-300
100
90.2228
80.7435
71.8335
63.7144
56.5438
50.4094
45.3328
41.2817
38.187
35.9631
34.5265
33.8122
33.7857
34.4489
35.8394
38.0251
41.0919
45.1272
50.2008
56.3454
63.5384
71.6909
80.6433
90.1711
100
-300
-300
-300
-300
-300
-300
-300
-300
-300
-300
100
89.7819
79.8762
70.5673
62.088
54.6036
48.2061
42.9185
38.7067
35.4982
33.2024
31.7307
31.0138
31.0138
31.7307
33.2024
35.4982
38.7067
42.9185
48.2061
54.6036
62.088
70.5673
79.8762
89.7819
100
-300
-300
-300
-300
-300
-300
-300
-300
-300
-300
-300
-300
-300
-300
100
89.871
80.0501
70.8177
62.4032
54.9693
48.6063
43.3366
39.1267
35.9054
33.5842
32.0776
31.3192
31.2744
31.9462
33.3747
35.6313
38.8055
42.9888
48.2536
54.6338
62.1059
70.5769
79.8807
89.7836
100
-300
-300
-300
-300
-300
-300
-300
-300
-300
-300
100
89.496
79.3131
69.7438
61.0274
53.3337
46.7574
41.322
36.9927
33.6946
31.3347
29.822
29.0851
29.0851
29.822
31.3347
33.6946
36.9927
41.322
46.7574
53.3337
61.0274
69.7438
79.3131
89.496
100
-300
-300
-300
-300
-300
-300
-300
-300
-300
-300
-300
-300
-300
-300
100
89.6422
79.5986
70.1551
61.5453
53.9349
47.4159
42.0105
37.6847
34.3658
31.9644
30.3941
29.5888
29.5147
30.1768
31.6181
33.9129
37.1542
41.4363
46.834
53.3817
61.0551
69.7582
79.3196
89.4982
100
-300
-300
-300
-300
-300
-300
-300
-300
-300
-300
100
89.2914
78.9103
69.1548
60.2687
52.4253
45.7211
40.1801
35.7666
32.4046
29.9989
28.4568
27.7056
27.7056
28.4568
29.9989
32.4046
35.7666
40.1801
45.7211
52.4253
60.2687
69.1548
78.9103
89.2914
100
-300
-300
-300
-300
-300
-300
-300
-300
-300
-300
-300
-300
-300
-300
100
89.5254
79.3672
69.8132
61.0984
53.3892
46.7777
41.2857
36.8787
33.4839
31.0119
29.3773
28.5159
28.3963
29.0266
30.4531
32.7535
36.0238
40.3609
45.841
52.4992
60.31
69.1751
78.9186
89.294
100
-300
-300
-300
-300
-300
-300
-300
-300
-300
-300
100
89.1494
78.6305
68.7456
59.7417
51.7943
45.0014
39.387
34.9151
31.5086
29.0711
27.5087
26.7475
26.7475
27.5087
29.0711
31.5086
34.9151
39.387
45.0014
51.7943
59.7417
68.7456
78.6305
89.1494
100
-300
-300
-300
-300
-300
-300
-300
-300
-300
-300
-300
-300
-300
-300
100
89.5144
79.3435
69.7736
61.038
53.3015
46.6548
41.1188
36.6585
33.2018
30.661
28.9536
28.019
27.8305
28.4008
29.7807
32.0519
35.3136
39.6648
45.1832
51.9039
59.8005
68.7723
78.6397
89.1513
100
-300
-300
-300
-300
-300
-300
-300
-300
-300
-300
100
89.0535
78.4418
68.4695
59.3861
51.3687
44.5158
38.852
34.3407
30.9042
28.4453
26.8691
26.1013
26.1013
26.8691
28.4453
30.9042
34.3407
38.852
44.5158
51.3687
59.3861
68.4695
78.4418
89.0535
100
-300
-300
-300
-300
-300
-300
-300
-300
-300
-300
-300
-300
-300
-300
100
89.6087
79.5266
70.0346
61.3612
53.6671
47.0399
41.4986
37.0077
33.4964
30.8804
29.0822
28.0476
27.7573
28.231
29.5256
31.7281
34.9414
39.2667
44.7829
51.5251
59.4655
68.5011
78.449
89.0528
100
-300
-300
-300
-300
-300
-300
-300
-300
-300
-300
100
88.9907
78.318
68.2886
59.1531
51.0897
44.1976
38.5013
33.9642
30.5081
28.0352
26.45
25.6778
25.6778
26.45
28.0352
30.5081
33.9642
38.5013
44.1976
51.0897
59.1531
68.2886
78.318
88.9907
100
-300
-300
-300
-300
-300
-300
-300
-300
-300
-300
-300
-300
-300
-300
100
89.8141
79.9276
70.6122
62.0881
54.5091
47.9572
42.4484
37.9462
34.3819
31.6758
29.7583
28.5853
28.1482
28.4771
29.6382
31.725
34.8452
39.1026
44.5771
51.3035
59.2527
68.3193
78.3166
88.9831
100
-300
-300
-300
-300
-300
-300
-300
-300
-300
-300
100
88.9506
78.2392
68.1733
59.0046
50.912
43.9949
38.278
33.7245
30.2559
27.774
26.1831
25.4081
25.4081
26.1831
27.774
30.2559
33.7245
38.278
43.9949
50.912
59.0046
68.1733
78.2392
88.9506
100
-300
-300
-300
-300
-300
-300
-300
-300
-300
-300
-300
-300
-300
-300
100
90.1416
80.5684
71.5384
63.2596
55.8755
49.4603
44.0245
39.5297
35.9091
33.0895
31.0122
29.6478
29.0037
29.1255
30.092
32.0059
34.9807
39.1235
44.515
51.1898
59.1174
68.1897
78.2158
88.9282
100
-300
-300
-300
-300
-300
-300
-300
-300
-300
-300
100
88.9259
78.1904
68.1019
58.9127
50.8019
43.8694
38.1397
33.5761
30.0997
27.6123
26.0179
25.2412
25.2412
26.0179
27.6123
30.0997
33.5761
38.1397
43.8694
50.8019
58.9127
68.1019
78.1904
88.9259
100
-300
-300
-300
-300
-300
-300
-300
-300
-300
-300
-300
-300
-300
-300
100
90.606
81.4782
72.8561
64.9317
57.834
51.6261
46.3103
41.8439
38.1609
35.1956
32.9041
31.278
30.3486
30.1833
30.8787
32.5497
35.3171
39.2914
44.5547
51.1409
59.0185
68.0767
78.1202
88.8739
100
-300
-300
-300
-300
-300
-300
-300
-300
-300
-300
100
88.9109
78.161
68.059
58.8574
50.7357
43.7938
38.0565
33.4867
30.0057
27.515
25.9184
25.1407
25.1407
25.9184
27.515
30.0057
33.4867
38.0565
43.7938
50.7357
58.8574
68.059
78.161
88.9109
100
-300
-300
-300
-300
-300
-300
-300
-300
-300
-300
-300
-300
-300
-300
100
91.2235
82.6889
74.6133
67.1675
60.4625
54.5459
49.4078
44.9973
41.2455
38.0938
35.5172
33.5381
32.2225
31.6695
31.9998
33.3437
35.8304
39.574
44.6575
51.1148
58.9139
67.9424
78.0006
88.8041
100
-300
-300
-300
-300
-300
-300
-300
-300
-300
-300
100
88.9022
78.1438
68.0338
58.825
50.6969
43.7496
38.0077
33.4344
29.9507
27.458
25.8602
25.0819
25.0819
25.8602
27.458
29.9507
33.4344
38.0077
43.7496
50.6969
58.825
68.0338
78.1438
88.9022
100
-300
-300
-300
-300
-300
-300
-300
-300
-300
-300
-300
-300
-300
-300
100
92.0081
84.2295
76.8536
70.0265
63.837
58.313
53.4268
49.112
45.2897
41.903
38.95
36.499
34.669
33.6043
33.4567
34.3749
36.4964
39.9379
44.7827
51.0653
58.7549
67.7403
77.8195
88.6977
100
-300
-300
-300
-300
-300
-300
-300
-300
-300
-300
100
88.8972
78.134
68.0195
58.8065
50.6748
43.7244
37.98
33.4046
29.9193
27.4256
25.827
25.0484
25.0484
25.827
27.4256
29.9193
33.4046
37.98
43.7244
50.6748
58.8065
68.0195
78.134
88.8972
100
-300
-300
-300
-300
-300
-300
-300
-300
-300
-300
-300
-300
-300
-300
100
92.969
86.1184
79.6069
73.5522
68.018
63.0085
58.4719
54.3154
50.4342
46.7581
43.3083
40.2283
37.7211
35.9946
35.2389
35.6209
37.2836
40.3435
44.8826
50.9368
58.4801
67.4085
77.5239
88.5231
100
-300
-300
-300
-300
-300
-300
-300
-300
-300
-300
100
88.8945
78.1286
68.0115
58.7963
50.6626
43.7104
37.9646
33.3881
29.902
27.4076
25.8087
25.0298
25.0298
25.8087
27.4076
29.902
33.3881
37.9646
43.7104
50.6626
58.7963
68.0115
78.1286
88.8945
100
-300
-300
-300
-300
-300
-300
-300
-300
-300
-300
-300
-300
-300
-300
100
94.1063
88.3576
82.8791
77.7589
73.0345
68.6851
64.6291
60.7332
56.8376
52.818
48.7007
44.7743
41.382
38.818
37.3116
37.041
38.1472
40.7406
44.899
50.6601
58.0087
66.8591
77.0325
88.2284
100
-300
-300
-300
-300
-300
-300
-300
-300
-300
-300
100
88.893
78.1256
68.0072
58.7908
50.656
43.7029
37.9563
33.3792
29.8926
27.3979
25.7987
25.0198
25.0198
25.7987
27.3979
29.8926
33.3792
37.9563
43.7029
50.656
58.7908
68.0072
78.1256
88.893
100
-300
-300
-300
-300
-300
-300
-300
-300
-300
-300
-300
-300
-300
-300
100
95.409
90.926
86.6425
82.6181
78.8671
75.3469
71.9478
68.4834
64.694
60.3018
55.2368
50.1404
45.5983
42.0022
39.6028
38.5698
39.027
41.0688
44.7639
50.1522
57.236
65.966
76.2141
87.7203
100
-300
-300
-300
-300
-300
-300
-300
-300
-300
-300
100
88.8922
78.1241
68.005
58.7878
50.6525
43.6989
37.9519
33.3745
29.8876
27.3928
25.7935
25.0145
25.0145
25.7935
27.3928
29.8876
33.3745
37.9519
43.6989
50.6525
58.7878
68.005
78.1241
88.8922
100
-300
-300
-300
-300
-300
-300
-300
-300
-300
-300
-300
-300
-300
-300
100
96.8524
93.776
90.8296
88.0482
85.4304
82.9253
80.4115
77.6608
74.2741
69.6119
63.0142
56.2313
50.2174
45.4025
41.9949
40.1153
39.8488
41.2615
44.4059
49.3215
56.0334
64.5497
74.8479
86.8098
100
-300
-300
-300
-300
-300
-300
-300
-300
-300
-300
100
88.8918
78.1233
68.0038
58.7864
50.6507
43.6969
37.9497
33.3721
29.8851
27.3901
25.7909
25.0118
25.0118
25.7909
27.3901
29.8851
33.3721
37.9497
43.6969
50.6507
58.7864
68.0038
78.1233
88.8918
100
-300
-300
-300
-300
-300
-300
-300
-300
-300
-300
-300
-300
-300
-300
100
98.3989
96.833
95.3308
93.9078
92.5585
91.2461
89.8816
88.2705
85.9616
81.7583
72.0036
62.7159
54.9235
48.7834
44.3241
41.5658
40.5342
41.2572
43.7639
48.0856
54.2639
62.3721
72.5547
85.0616
100
-300
-300
-300
-300
-300
-300
-300
-300
-300
-300
100
88.8916
78.1229
68.0032
58.7856
50.6498
43.6959
37.9485
33.3709
29.8839
27.3888
25.7895
25.0105
25.0105
25.7895
27.3888
29.8839
33.3709
37.9485
43.6959
50.6498
58.7856
68.0032
78.1229
88.8916
100
-300
-300
-300
-300
-300
-300
-300
-300
-300
-300
-300
-300
-300
-300
100
100
100
100
100
100
100
100
100
100
100
81.3146
68.7232
59.1819
51.832
46.4043
42.8089
41.0157
41.0156
42.8087
46.4039
51.8315
59.1813
68.7225
81.314
100
100
100
100
100
100
100
100
100
100
100
100
88.8915
78.1227
68.003
58.7853
50.6494
43.6954
37.948
33.3703
29.8832
27.3882
25.7889
25.0098
25.0098
25.7889
27.3882
29.8832
33.3703
37.948
43.6953
50.6494
58.7852
68.0029
78.1227
88.8915
100
-300
-300
-300
-300
-300
-300
-300
-300
-300
-300
-300
-300
-300
-300
-300
-300
-300
-300
-300
-300
-300
-300
-300
-300
100
85.0615
72.5544
62.3716
54.263
48.0844
43.7625
41.2556
40.5324
41.5639
44.322
48.7812
54.9212
62.7136
72.0014
81.7563
85.9597
88.2688
89.8799
91.2446
92.5572
93.9067
95.33
96.8324
98.3986
100
100
88.8914
78.1226
68.0028
58.7851
50.6492
43.6951
37.9477
33.37
29.883
27.3879
25.7886
25.0095
25.0095
25.7886
27.3879
29.8829
33.37
37.9477
43.6951
50.6491
58.7851
68.0028
78.1226
88.8914
100
-300
-300
-300
-300
-300
-300
-300
-300
-300
-300
-300
-300
-300
-300
-300
-300
-300
-300
-300
-300
-300
-300
-300
-300
100
86.8091
74.8466
64.5477
56.0307
49.3182
44.4021
41.2573
39.8443
40.1106
41.9899
45.3975
50.2122
56.2261
63.0092
69.6071
74.2694
77.6564
80.4073
82.9215
85.4271
88.0454
90.8275
93.7745
96.8516
100
100
88.8914
78.1226
68.0028
58.785
50.6491
43.695
37.9476
33.3699
29.8828
27.3878
25.7884
25.0093
25.0093
25.7884
27.3877
29.8828
33.3698
37.9476
43.6949
50.649
58.7849
68.0027
78.1225
88.8914
100
-300
-300
-300
-300
-300
-300
-300
-300
-300
-300
-300
-300
-300
-300
-300
-300
-300
-300
-300
-300
-300
-300
-300
-300
100
87.7187
76.2111
65.9615
57.2302
50.1452
44.756
41.0601
39.0176
38.56
39.5927
41.9918
45.5878
50.13
55.2264
60.2917
64.6842
68.4741
71.9391
75.3391
78.8602
82.6124
86.6381
90.923
95.4074
100
100
88.8914
78.1226
68.0027
58.785
50.649
43.695
37.9476
33.3698
29.8827
27.3877
25.7883
25.0092
25.0092
25.7883
27.3876
29.8826
33.3697
37.9474
43.6948
50.6489
58.7848
68.0026
78.1225
88.8914
100
-300
-300
-300
-300
-300
-300
-300
-300
-300
-300
-300
-300
-300
-300
-300
-300
-300
-300
-300
-300
-300
-300
-300
-300
100
88.2253
77.0264
66.8502
57.9973
50.6465
44.8834
40.7235
38.1289
37.0217
37.2916
38.7976
41.3614
44.7537
48.6804
52.7981
56.8184
60.7149
64.6121
68.6696
73.021
77.7476
82.8703
88.3516
94.1033
100
100
88.8914
78.1226
68.0027
58.785
50.649
43.6949
37.9475
33.3698
29.8827
27.3876
25.7883
25.0092
25.0092
25.7882
27.3875
29.8825
33.3695
37.9472
43.6946
50.6487
58.7846
68.0024
78.1224
88.8913
100
-300
-300
-300
-300
-300
-300
-300
-300
-300
-300
-300
-300
-300
-300
-300
-300
-300
-300
-300
-300
-300
-300
-300
-300
100
88.5172
77.5122
67.3915
58.4582
50.9107
44.8529
40.3107
37.2485
35.584
35.2008
35.9557
37.6818
40.1891
43.2695
46.7202
50.3976
54.2806
58.4395
62.9791
67.9922
73.5307
79.5902
86.107
92.9632
100
100
88.8914
78.1225
68.0027
58.7849
50.649
43.6949
37.9475
33.3698
29.8827
27.3876
25.7882
25.0091
25.009
25.788
27.3873
29.8823
33.3693
37.9469
43.6943
50.6483
58.7843
68.0022
78.1221
88.8912
100
-300
-300
-300
-300
-300
-300
-300
-300
-300
-300
-300
-300
-300
-300
-300
-300
-300
-300
-300
-300
-300
-300
-300
-300
100
88.6867
77.7978
67.7087
58.7142
51.0167
44.7274
39.8771
36.4313
34.3065
33.3859
33.5321
34.5961
36.4262
38.878
41.8325
45.2217
49.0473
53.3666
58.2583
63.7891
69.9864
76.8225
84.2082
91.9973
100
100
88.8914
78.1225
68.0027
58.7849
50.649
43.6949
37.9475
33.3698
29.8826
27.3875
25.7881
25.0089
25.0088
25.7878
27.3869
29.8818
33.3687
37.9463
43.6936
50.6476
58.7837
68.0016
78.1217
88.891
100
-300
-300
-300
-300
-300
-300
-300
-300
-300
-300
-300
-300
-300
-300
-300
-300
-300
-300
-300
-300
-300
-300
-300
-300
100
88.7842
77.9613
67.885
58.8401
51.0267
44.5572
39.4639
35.7124
33.2198
31.8717
31.5389
32.0906
33.4063
35.3869
37.9663
41.1224
44.8803
49.2989
54.447
60.3758
67.095
74.5571
82.6505
91.2039
100
100
88.8914
78.1225
68.0027
58.7849
50.649
43.6949
37.9475
33.3697
29.8826
27.3874
25.7879
25.0087
25.0084
25.7872
27.3863
29.881
33.3677
37.9451
43.6923
50.6463
58.7824
68.0006
78.121
88.8906
100
-300
-300
-300
-300
-300
-300
-300
-300
-300
-300
-300
-300
-300
-300
-300
-300
-300
-300
-300
-300
-300
-300
-300
-300
100
88.8386
78.0508
67.9754
58.8882
50.9853
44.3776
39.0969
35.1087
32.3309
30.6526
29.9527
30.1158
31.0455
32.6741
34.9707
37.9437
41.6375
46.118
51.4516
57.6811
64.8039
72.7569
81.4103
90.5716
100
100
88.8914
78.1225
68.0027
58.7849
50.649
43.6949
37.9474
33.3696
29.8824
27.3872
25.7876
25.0082
25.0078
25.7863
27.385
29.8794
33.3658
37.943
43.69
50.644
58.7802
67.9986
78.1196
88.8898
100
-300
-300
-300
-300
-300
-300
-300
-300
-300
-300
-300
-300
-300
-300
-300
-300
-300
-300
-300
-300
-300
-300
-300
-300
100
88.8674
78.0961
68.0151
58.893
50.9218
44.2101
38.7885
34.6221
31.6294
29.703
28.7288
28.6034
29.2479
30.6167
32.7027
35.5357
39.1749
43.6939
49.1603
55.6125
63.0399
71.3678
80.4517
90.0823
100
100
88.8914
78.1225
68.0027
58.7849
50.6489
43.6948
37.9473
33.3695
29.8822
27.3868
25.787
25.0074
25.0066
25.7847
27.3828
29.8766
33.3625
37.9391
43.6858
50.6396
58.7761
67.9951
78.117
88.8885
100
-300
-300
-300
-300
-300
-300
-300
-300
-300
-300
-300
-300
-300
-300
-300
-300
-300
-300
-300
-300
-300
-300
-300
-300
100
88.8809
78.1156
68.0259
58.8758
50.8534
44.0653
38.5404
34.2434
31.0935
28.9859
27.8118
27.4769
27.9149
29.0954
31.0275
33.756
37.3515
41.8944
47.4545
54.0683
61.72
70.3263
79.7321
89.7148
100
100
88.8914
78.1225
68.0027
58.7849
50.6489
43.6947
37.9472
33.3692
29.8818
27.3862
25.7861
25.0059
25.0045
25.7818
27.3791
29.8718
33.3566
37.9323
43.6783
50.632
58.7688
67.9889
78.1124
88.886
100
-300
-300
-300
-300
-300
-300
-300
-300
-300
-300
-300
-300
-300
-300
-300
-300
-300
-300
-300
-300
-300
-300
-300
-300
100
88.8854
78.1196
68.0205
58.8482
50.7884
43.9455
38.3471
33.9573
30.6957
28.4594
27.1436
26.6605
26.9522
27.9991
29.8213
32.474
36.0362
40.5938
46.2188
52.9474
60.76
69.5677
79.2074
89.4466
100
100
88.8914
78.1225
68.0027
58.7848
50.6488
43.6946
37.947
33.3688
29.8811
27.3851
25.7844
25.0035
25.001
25.777
27.3726
29.8636
33.3466
37.9207
43.6655
50.6188
58.7562
67.978
78.1044
88.8818
100
-300
-300
-300
-300
-300
-300
-300
-300
-300
-300
-300
-300
-300
-300
-300
-300
-300
-300
-300
-300
-300
-300
-300
-300
100
88.8837
78.1136
68.0047
58.8151
50.7284
43.8474
38.1985
33.7451
30.4069
28.0822
26.6691
26.0839
26.2749
27.2293
28.975
31.5744
35.1122
39.6788
45.348
52.156
60.0812
69.0307
78.8355
89.2564
100
100
88.8914
78.1225
68.0026
58.7848
50.6487
43.6944
37.9466
33.3682
29.88
27.3834
25.7818
24.9995
24.9953
25.7691
27.362
29.85
33.3299
37.9012
43.644
50.5964
58.7347
67.9594
78.0906
88.8744
100
-300
-300
-300
-300
-300
-300
-300
-300
-300
-300
-300
-300
-300
-300
-300
-300
-300
-300
-300
-300
-300
-300
-300
-300
100
88.877
78.0989
67.9797
58.7761
50.6703
43.7638
38.0819
33.5871
30.1989
27.8163
26.3389
25.686
25.8098
26.7023
28.3964
30.9593
34.4802
39.0522
44.7509
51.6126
59.6145
68.6611
78.5794
89.1254
100
100
88.8914
78.1225
68.0026
58.7847
50.6485
43.694
37.946
33.3672
29.8784
27.3807
25.7776
24.9933
24.9863
25.7564
27.345
29.8281
33.3028
37.8693
43.6085
50.5594
58.699
67.9283
78.0676
88.8621
100
-300
-300
-300
-300
-300
-300
-300
-300
-300
-300
-300
-300
-300
-300
-300
-300
-300
-300
-300
-300
-300
-300
-300
-300
100
88.8644
78.074
67.9427
58.7267
50.6075
43.6851
37.9836
33.4644
30.0464
27.6284
26.1113
25.4159
25.497
26.3498
28.0104
30.5496
34.0592
38.6345
44.3525
51.2497
59.3026
68.4138
78.4079
89.0376
100
100
88.8914
78.1224
68.0025
58.7845
50.6482
43.6935
37.9451
33.3656
29.8758
27.3766
25.7712
24.9837
24.9722
25.7367
27.3184
29.7935
33.2598
37.8184
43.5514
50.4994
58.6407
67.8773
78.0295
88.8417
100
-300
-300
-300
-300
-300
-300
-300
-300
-300
-300
-300
-300
-300
-300
-300
-300
-300
-300
-300
-300
-300
-300
-300
-300
100
88.8435
78.034
67.8869
58.6585
50.5296
43.599
37.8887
33.3587
29.9265
27.4907
25.9522
25.2329
25.2891
26.1181
27.7585
30.283
33.7857
38.3633
44.0938
51.0139
59.0997
68.2529
78.2963
88.9805
100
100
88.8913
78.1224
68.0024
58.7843
50.6478
43.6928
37.9437
33.3634
29.872
27.3705
25.7617
24.9693
24.9512
25.7069
27.2778
29.7404
33.1933
37.739
43.4616
50.4041
58.5473
67.7949
77.9676
88.8085
100
-300
-300
-300
-300
-300
-300
-300
-300
-300
-300
-300
-300
-300
-300
-300
-300
-300
-300
-300
-300
-300
-300
-300
-300
100
88.8097
77.9706
67.801
58.5584
50.4226
43.4903
37.7811
33.2522
29.8194
27.38
25.8345
25.1054
25.1499
25.9669
27.5964
30.113
33.612
38.1915
43.93
50.8647
58.9714
68.1511
78.2257
88.9443
100
100
88.8913
78.1223
68.0022
58.784
50.6472
43.6917
37.9419
33.3601
29.8667
27.3618
25.748
24.9484
24.9204
25.6631
27.2177
29.6611
33.093
37.618
43.3234
50.2559
58.4005
67.6641
77.8686
88.7549
100
-300
-300
-300
-300
-300
-300
-300
-300
-300
-300
-300
-300
-300
-300
-300
-300
-300
-300
-300
-300
-300
-300
-300
-300
100
88.7557
77.8705
67.6679
58.4072
50.2669
43.3402
37.6426
33.1272
29.7068
27.2767
25.7367
25.0093
25.0525
25.8663
27.4921
30.0057
33.5037
38.085
43.8289
50.7727
58.8922
68.0883
78.1821
88.922
100
100
88.8913
78.1222
68.002
58.7836
50.6464
43.6903
37.9393
33.3557
29.8592
27.3496
25.7287
24.9189
24.8767
25.6005
27.1311
29.5457
32.9457
37.4384
43.1156
50.0301
58.1738
67.4594
77.7119
88.6696
100
-300
-300
-300
-300
-300
-300
-300
-300
-300
-300
-300
-300
-300
-300
-300
-300
-300
-300
-300
-300
-300
-300
-300
-300
100
88.67
77.7131
67.4617
58.1776
50.0364
43.1251
37.4523
32.965
29.5715
27.1643
25.6419
24.9267
24.9775
25.7953
27.4229
29.9374
33.4365
38.0199
43.7676
50.7172
58.8447
68.0506
78.156
88.9086
100
100
88.8912
78.1221
68.0017
58.783
50.6454
43.6883
37.9358
33.3497
29.8491
27.3331
25.7026
24.8786
24.8165
25.5136
27.0098
29.3827
32.735
37.178
42.81
49.6928
57.8293
67.1432
77.4661
88.5341
100
-300
-300
-300
-300
-300
-300
-300
-300
-300
-300
-300
-300
-300
-300
-300
-300
-300
-300
-300
-300
-300
-300
-300
-300
100
88.5344
77.4668
67.1445
57.8315
49.6963
42.8153
37.1857
32.7456
29.3969
27.0281
25.5363
24.844
24.9107
25.7391
27.3734
29.8921
33.3941
37.9802
43.7308
50.6843
58.8166
68.0285
78.1407
88.9007
100
100
88.8911
78.1219
68.0013
58.7823
50.644
43.6858
37.9314
33.3419
29.836
27.3116
25.6682
24.8252
24.7363
25.3968
26.8453
29.1589
32.4421
36.8106
42.3712
49.199
57.314
66.6593
77.0817
88.3186
100
-300
-300
-300
-300
-300
-300
-300
-300
-300
-300
-300
-300
-300
-300
-300
-300
-300
-300
-300
-300
-300
-300
-300
-300
100
88.3187
77.0821
66.66
57.3152
49.2009
42.3741
36.8147
32.4478
29.1665
26.8551
25.409
24.751
24.8425
25.6877
27.3331
29.859
33.3657
37.9551
43.7086
50.6649
58.8003
68.0157
78.1319
88.8963
100
100
88.891
78.1217
68.0009
58.7814
50.6423
43.6827
37.9258
33.3322
29.8195
27.2843
25.6244
24.7569
24.6329
25.2448
26.6289
28.8611
32.0468
36.3065
41.757
48.4912
56.555
65.9246
76.4794
87.9717
100
-300
-300
-300
-300
-300
-300
-300
-300
-300
-300
-300
-300
-300
-300
-300
-300
-300
-300
-300
-300
-300
-300
-300
-300
100
87.9717
76.4796
65.925
56.5556
48.4922
41.7585
36.3086
32.0498
28.8651
26.6341
25.2511
24.6405
24.7659
25.6346
27.2956
29.8315
33.3446
37.9382
43.6947
50.6533
58.7909
68.0084
78.1269
88.8937
100
100
88.8909
78.1214
68.0004
58.7804
50.6403
43.679
37.9191
33.3204
29.7994
27.2509
25.5705
24.6724
24.5038
25.0536
26.354
28.4781
31.5306
35.6357
40.9211
47.5004
55.4555
64.8157
75.5273
87.3979
100
-300
-300
-300
-300
-300
-300
-300
-300
-300
-300
-300
-300
-300
-300
-300
-300
-300
-300
-300
-300
-300
-300
-300
-300
100
87.3979
75.5274
64.8159
55.4559
47.5009
40.9219
35.6368
31.5321
28.4801
26.3566
25.0568
24.5077
24.6769
25.5757
27.2567
29.8055
33.3268
37.9254
43.6851
50.6459
58.7852
68.0042
78.1241
88.8923
100
100
88.8908
78.1212
67.9998
58.7792
50.6381
43.6747
37.9113
33.3067
29.7758
27.2116
25.5066
24.5713
24.3486
24.8216
26.0171
28.0027
30.8799
34.7737
39.8197
46.1523
53.8951
63.1534
73.9984
86.4008
100
-300
-300
-300
-300
-300
-300
-300
-300
-300
-300
-300
-300
-300
-300
-300
-300
-300
-300
-300
-300
-300
-300
-300
-300
100
86.4008
73.9984
63.1535
53.8953
46.1525
39.8201
34.7743
30.8807
28.0037
26.0184
24.8232
24.3506
24.5736
25.5091
27.2144
29.7788
33.3098
37.9145
43.6778
50.6408
58.7816
68.0017
78.1225
88.8915
100
100
88.8908
78.1209
67.9992
58.778
50.6356
43.67
37.9026
33.2912
29.7491
27.1668
25.4334
24.4551
24.1687
24.5506
25.6196
27.4352
30.0916
33.709
38.424
44.3831
51.7445
60.6956
71.4966
84.5208
100
-300
-300
-300
-300
-300
-300
-300
-300
-300
-300
-300
-300
-300
-300
-300
-300
-300
-300
-300
-300
-300
-300
-300
-300
100
84.5208
71.4966
60.6957
51.7445
44.3833
38.4242
33.7093
30.092
27.4357
25.6202
24.5514
24.1697
24.4562
25.4347
27.1682
29.7506
33.2928
37.9042
43.6715
50.637
58.7791
68.0002
78.1216
88.8911
100
100
88.8907
78.1207
67.9987
58.7768
50.6331
43.6652
37.8935
33.2747
29.7202
27.1178
25.3529
24.3264
23.9682
24.2464
25.1695
26.7859
29.1776
32.4529
36.738
42.1723
48.9149
57.1819
67.3745
80.5217
100
100
100
100
100
100
100
100
100
100
100
100
100
100
100
100
100
100
100
100
100
100
100
100
100
100
80.5217
67.3745
57.182
48.9149
42.1724
36.7381
32.453
29.1777
26.7861
25.1698
24.2467
23.9687
24.3269
25.3535
27.1185
29.7209
33.2754
37.8942
43.6659
50.6338
58.7774
67.9992
78.121
88.8909
100
100
88.8908
78.1207
67.9985
58.776
50.631
43.6605
37.8843
33.2577
29.6902
27.0665
25.2679
24.1895
23.7537
23.9187
24.6814
26.0757
28.1674
31.0462
34.8157
39.5849
45.4626
52.5538
60.9466
70.5899
80.5217
84.5208
86.4008
87.3979
87.9716
88.3185
88.5339
88.6691
88.7541
88.8069
88.8388
88.8568
88.8648
88.8648
88.8568
88.8388
88.8069
88.7541
88.6691
88.5339
88.3185
87.9716
87.3979
86.4008
84.5208
80.5217
70.5899
60.9466
52.5538
45.4626
39.585
34.8157
31.0463
28.1675
26.0758
24.6815
23.9189
23.7539
24.1897
25.2682
27.0668
29.6905
33.2581
37.8847
43.6609
50.6313
58.7762
67.9987
78.1209
88.8908
100
100
88.891
78.1211
67.9989
58.7759
50.6297
43.6568
37.8762
33.2417
29.6608
27.0154
25.1822
24.0502
23.5339
23.581
24.1752
25.3347
27.1063
29.5569
32.7616
36.7907
41.6924
47.4655
54.0024
60.9466
67.3745
71.4966
73.9983
75.5272
76.4793
77.0815
77.4657
77.7111
77.867
77.9646
78.0239
78.0574
78.0725
78.0725
78.0574
78.0239
77.9646
77.867
77.7111
77.4657
77.0815
76.4793
75.5272
73.9983
71.4966
67.3745
60.9466
54.0024
47.4655
41.6924
36.7908
32.7616
29.5569
27.1063
25.3347
24.1753
23.5811
23.534
24.0503
25.1823
27.0155
29.661
33.2419
37.8763
43.657
50.6299
58.776
67.9989
78.1212
88.891
100
100
88.8916
78.1223
68.0003
58.7772
50.6302
43.6552
37.8704
33.2283
29.6345
26.9676
25.1002
23.9152
23.3189
23.2484
23.6741
24.5979
26.0473
28.0659
30.7014
33.9899
37.9353
42.4813
47.4655
52.5538
57.1819
60.6956
63.1534
64.8156
65.9245
66.6591
67.1427
67.4583
67.6619
67.7908
67.8697
67.9145
67.9347
67.9347
67.9145
67.8697
67.7908
67.6619
67.4583
67.1427
66.6591
65.9245
64.8156
63.1534
60.6956
57.1819
52.5538
47.4655
42.4813
37.9353
33.9899
30.7014
28.0659
26.0473
24.5979
23.6741
23.2484
23.319
23.9153
25.1003
26.9677
29.6345
33.2284
37.8705
43.6553
50.6303
58.7773
68.0004
78.1223
88.8916
100
100
88.893
78.1249
68.0039
58.7813
50.634
43.6575
37.8691
33.2202
29.6142
26.9272
25.0274
23.792
23.1194
22.9367
23.2015
23.9003
25.0424
26.6509
28.7507
31.3532
34.4389
37.9353
41.6924
45.4626
48.9148
51.7444
53.8951
55.4554
56.5548
57.3137
57.8286
58.1725
58.398
58.5425
58.6318
58.6829
58.706
58.706
58.6829
58.6318
58.5425
58.398
58.1725
57.8286
57.3137
56.5548
55.4554
53.8951
51.7444
48.9148
45.4626
41.6924
37.9353
34.4389
31.3532
28.7507
26.6509
25.0424
23.9003
23.2015
22.9367
23.1195
23.792
25.0274
26.9272
29.6143
33.2202
37.8691
43.6575
50.634
58.7813
68.0039
78.1249
88.893
100
100
88.8956
78.13
68.0111
58.7901
50.6437
43.6667
37.8757
33.2211
29.6046
26.8995
24.9702
23.6888
22.9466
22.6612
22.779
23.2726
24.1359
25.3749
26.9972
28.9996
31.3532
33.9899
36.7907
39.5849
42.1723
44.3831
46.1522
47.5003
48.491
49.1986
49.6921
50.0288
50.2533
50.3991
50.49
50.5424
50.5662
50.5662
50.5424
50.49
50.3991
50.2533
50.0288
49.6921
49.1986
48.491
47.5003
46.1522
44.3831
42.1723
39.5849
36.7907
33.9899
31.3532
28.9996
26.9972
25.3749
24.1359
23.2726
22.779
22.6612
22.9466
23.6888
24.9702
26.8995
29.6046
33.2211
37.8757
43.6667
50.6437
58.7902
68.0111
78.13
88.8956
100
100
88.9005
78.1395
68.0249
58.8074
50.6635
43.6876
37.8958
33.2372
29.6122
26.8917
24.937
23.6154
22.812
22.4366
22.4255
22.7401
23.3611
24.2817
25.4977
26.9972
28.7507
30.7014
32.7616
34.8157
36.738
38.424
39.8196
40.921
41.7569
42.3709
42.8093
43.1142
43.3208
43.4567
43.5423
43.5919
43.6146
43.6146
43.5919
43.5423
43.4567
43.3208
43.1142
42.8093
42.3709
41.7569
40.921
39.8196
38.424
36.738
34.8157
32.7616
30.7014
28.7507
26.9972
25.4977
24.2817
23.3611
22.7401
22.4255
22.4366
22.812
23.6154
24.937
26.8917
29.6122
33.2372
37.8958
43.6876
50.6635
58.8074
68.0249
78.1395
88.9005
100
100
88.9091
78.1565
68.0495
58.8388
50.7004
43.7283
37.938
33.278
29.6472
26.9148
24.9392
23.584
22.7292
22.2779
22.1584
22.3226
22.7416
23.3987
24.2817
25.3749
26.6509
28.0659
29.5569
31.0462
32.4529
33.709
34.7737
35.6357
36.3063
36.8103
37.1774
37.4371
37.6156