# vtk DataFile Version 2.0
LBE two cylinders
ASCII
DATASET STRUCTURED_POINTS
DIMENSIONS 76 76 1
ASPECT_RATIO 1 1 1
ORIGIN 0 0 0
POINT_DATA 5776
SCALARS temp double 1
LOOKUP_TABLE default
100
100
100
100
100
100
100
100
100
100
100
100
100
100
100
100
100
100
100
100
100
100
100
100
100
100
-300
-300
-300
-300
-300
-300
-300
-300
-300
-300
-300
-300
-300
-300
100
100
100
100
100
100
100
100
100
100
100
100
100
100
100
100
100
100
100
100
100
100
100
100
100
100
-300
-300
-300
-300
-300
-300
-300
-300
-300
-300
100
98.7869
97.6034
96.4769
95.4314
94.4858
93.6536
92.9427
92.3562
91.8934
91.5514
91.3263
91.2147
91.2147
91.3263
91.5514
91.8934
92.3562
92.9427
93.6536
94.4858
95.4314
96.4769
97.6034
98.7869
100
-300
-300
-300
-300
-300
-300
-300
-300
-300
-300
-300
-300
-300
-300
100
98.7882
97.6059
96.4805
95.436
94.4912
93.6595
92.949
92.3626
91.8997
91.5574
91.3319
91.2198
91.2192
91.3301
91.5546
91.8961
92.3583
92.9444
93.6549
94.4867
95.432
96.4773
97.6036
98.787
100
-300
-300
-300
-300
-300
-300
-300
-300
-300
-300
100
97.6028
95.264
93.038
90.972
89.1035
87.459
86.0542
84.8952
83.9807
83.3048
82.86
82.6395
82.6395
82.86
83.3048
83.9807
84.8952
86.0542
87.459
89.1035
90.972
93.038
95.264
97.6028
100
-300
-300
-300
-300
-300
-300
-300
-300
-300
-300
-300
-300
-300
-300
100
97.6058
95.2698
93.0464
90.9826
89.1159
87.4727
86.0687
84.9099
83.9952
83.3187
82.8729
82.6513
82.6499
82.8689
83.3123
83.9868
84.9001
86.058
87.4619
89.1056
90.9735
93.039
95.2646
97.6031
100
-300
-300
-300
-300
-300
-300
-300
-300
-300
-300
100
96.4747
93.0351
89.7615
86.7232
83.9754
81.557
79.491
77.7866
76.4417
75.4478
74.7936
74.4694
74.4694
74.7936
75.4478
76.4417
77.7866
79.491
81.557
83.9754
86.7232
89.7615
93.0351
96.4747
100
-300
-300
-300
-300
-300
-300
-300
-300
-300
-300
-300
-300
-300
-300
100
96.4802
93.046
89.7773
86.7432
83.9987
81.5827
79.5182
77.8143
76.469
75.4739
74.818
74.4915
74.4889
74.8104
75.4619
76.4532
77.7958
79.4981
81.5623
83.9792
86.7259
89.7633
93.0362
96.4752
100
-300
-300
-300
-300
-300
-300
-300
-300
-300
-300
100
95.4254
90.9622
86.7143
82.7718
79.2061
76.0679
73.3872
71.1755
69.4304
68.1406
67.2918
66.8711
66.8711
67.2918
68.1406
69.4304
71.1755
73.3872
76.0679
79.2061
82.7718
86.7143
90.9622
95.4254
100
-300
-300
-300
-300
-300
-300
-300
-300
-300
-300
-300
-300
-300
-300
100
95.4352
90.9814
86.742
82.8068
79.247
76.1132
73.435
71.2242
69.4784
68.1867
67.3347
66.91
66.9055
67.3214
68.1654
69.4506
71.1916
73.3996
76.0772
79.2128
82.7765
86.7174
90.9641
95.4263
100
-300
-300
-300
-300
-300
-300
-300
-300
-300
-300
100
94.4729
89.0803
83.9478
79.1844
74.8763
71.0847
67.8458
65.1736
63.0652
61.5069
60.4814
59.9731
59.9731
60.4814
61.5069
63.0652
65.1736
67.8458
71.0847
74.8763
79.1844
83.9478
89.0803
94.4729
100
-300
-300
-300
-300
-300
-300
-300
-300
-300
-300
-300
-300
-300
-300
100
94.4895
89.1128
83.9949
79.2439
74.9459
71.1616
67.9272
65.2565
63.147
61.5853
60.5544
60.0393
60.0316
60.5317
61.5491
63.0996
65.2009
67.8669
71.1004
74.8876
79.1922
83.953
89.0834
94.4743
100
-300
-300
-300
-300
-300
-300
-300
-300
-300
-300
100
93.6286
87.4124
81.496
76.005
71.0389
66.6683
62.9347
59.8545
57.4241
55.6279
54.4458
53.8599
53.8599
54.4458
55.6279
57.4241
59.8545
62.9347
66.6683
71.0389
76.005
81.496
87.4124
93.6286
100
-300
-300
-300
-300
-300
-300
-300
-300
-300
-300
-300
-300
-300
-300
100
93.6562
87.4664
81.5741
76.1039
71.1546
66.7961
63.07
59.9924
57.5602
55.7583
54.5672
53.97
53.9571
54.5294
55.698
57.4812
59.8997
62.9695
66.6942
71.0576
76.0179
81.5044
87.4174
93.6309
100
-300
-300
-300
-300
-300
-300
-300
-300
-300
-300
100
92.8982
85.9692
79.3746
73.2541
67.7187
62.8471
58.6856
55.2523
52.5434
50.5414
49.2238
48.5707
48.5707
49.2238
50.5414
52.5434
55.2523
58.6856
62.8471
67.7187
73.2541
79.3746
85.9692
92.8982
100
-300
-300
-300
-300
-300
-300
-300
-300
-300
-300
-300
-300
-300
-300
100
92.943
86.0571
79.5016
73.415
67.9069
63.0552
58.9058
55.4768
52.765
50.7537
49.4216
48.7501
48.7291
49.3599
50.6553
52.6361
55.3257
58.7419
62.8889
67.7487
73.2747
79.388
85.9771
92.9018
100
-300
-300
-300
-300
-300
-300
-300
-300
-300
-300
100
92.2811
84.7501
77.5825
70.9303
64.914
59.6192
55.0963
51.3648
48.4206
46.2447
44.8127
44.1029
44.1029
44.8127
46.2447
48.4206
51.3648
55.0963
59.6192
64.914
70.9303
77.5825
84.7501
92.2811
100
-300
-300
-300
-300
-300
-300
-300
-300
-300
-300
-300
-300
-300
-300
100
92.3526
84.89
77.7849
71.1866
65.2139
59.9509
55.4474
51.723
48.7742
46.5836
45.1284
44.3891
44.3555
45.0297
46.4261
48.568
51.4811
55.1853
59.6851
64.961
70.9623
77.6032
84.7623
92.2867
100
-300
-300
-300
-300
-300
-300
-300
-300
-300
-300
100
91.7721
83.7446
76.1044
69.0135
62.6006
56.9568
52.1357
48.1583
45.0201
42.7008
41.1745
40.418
40.418
41.1745
42.7008
45.0201
48.1583
52.1357
56.9568
62.6006
69.0135
76.1044
83.7446
91.7721
100
-300
-300
-300
-300
-300
-300
-300
-300
-300
-300
-300
-300
-300
-300
100
91.8836
83.9629
76.4202
69.4138
63.0692
57.4752
52.6847
48.7185
45.5734
43.2311
41.6685
40.8656
40.8128
41.5134
42.9838
45.2496
48.339
52.2735
57.0583
62.6726
69.0623
76.1356
83.7627
91.7804
100
-300
-300
-300
-300
-300
-300
-300
-300
-300
-300
100
91.3621
82.9346
74.9138
67.4697
60.7374
54.8124
49.7512
45.5757
42.2813
39.8466
38.2443
37.4501
37.4501
38.2443
39.8466
42.2813
45.5757
49.7512
54.8124
60.7374
67.4697
74.9138
82.9346
91.3621
100
-300
-300
-300
-300
-300
-300
-300
-300
-300
-300
-300
-300
-300
-300
100
91.5327
83.2686
75.3971
68.0825
61.4549
55.6068
50.5928
46.4348
43.13
40.6601
39.002
38.1366
38.0552
38.7631
40.2791
42.6315
45.8506
49.96
54.9653
60.845
67.542
74.9596
82.961
91.3741
100
-300
-300
-300
-300
-300
-300
-300
-300
-300
-300
100
91.0397
82.2975
73.9773
66.2553
59.2717
53.1256
47.8756
43.5444
40.1271
37.6016
35.9395
35.1157
35.1157
35.9395
37.6016
40.1271
43.5444
47.8756
53.1256
59.2717
66.2553
73.9773
82.2975
91.0397
100
-300
-300
-300
-300
-300
-300
-300
-300
-300
-300
-300
-300
-300
-300
100
91.2954
82.7984
74.7023
67.175
60.3491
54.319
49.1405
44.8362
41.4036
38.8253
37.0792
36.1478
36.0247
36.718
38.2494
40.6502
43.9537
48.185
53.3508
59.4288
66.3597
74.0425
82.3346
91.0562
100
-300
-300
-300
-300
-300
-300
-300
-300
-300
-300
100
90.7919
81.8081
73.2578
65.3223
58.1457
51.8298
46.4347
41.9838
38.4721
35.8769
34.1689
33.3224
33.3224
34.1689
35.8769
38.4721
41.9838
46.4347
51.8298
58.1457
65.3223
73.2578
81.8081
90.7919
100
-300
-300
-300
-300
-300
-300
-300
-300
-300
-300
-300
-300
-300
-300
100
91.1678
82.5444
74.3241
66.6755
59.732
53.5878
48.2991
43.8888
40.3553
37.6823
35.85
34.8439
34.6611
35.3137
36.8276
39.2377
42.5804
46.8832
52.1537
58.3694
65.4689
73.3478
81.8583
90.814
100
-300
-300
-300
-300
-300
-300
-300
-300
-300
-300
100
90.606
81.4407
72.7178
64.6221
57.3007
50.8573
45.3534
40.8127
37.2302
34.5826
32.8402
31.9766
31.9766
32.8402
34.5826
37.2302
40.8127
45.3534
50.8573
57.3007
64.6221
72.7178
81.4407
90.606
100
-300
-300
-300
-300
-300
-300
-300
-300
-300
-300
-300
-300
-300
-300
100
91.1477
82.5021
74.2556
66.5747
59.591
53.3973
48.0489
43.5685
39.9553
37.1955
35.2725
34.1765
33.91
34.4906
35.9498
38.3274
41.6636
45.9889
51.3121
57.6107
64.8218
72.8377
81.5058
90.634
100
-300
-300
-300
-300
-300
-300
-300
-300
-300
-300
100
90.4696
81.1714
72.3219
64.1088
56.6811
50.1443
44.5606
39.9541
36.3197
33.6338
31.8662
30.9901
30.9901
31.8662
33.6338
36.3197
39.9541
44.5606
50.1443
56.6811
64.1088
72.3219
81.1714
90.4696
100
-300
-300
-300
-300
-300
-300
-300
-300
-300
-300
-300
-300
-300
-300
100
91.2352
82.6716
74.4967
66.8719
59.9247
53.7446
48.3843
43.8659
40.1895
37.3443
35.319
34.1101
33.7281
34.1985
35.5603
37.8596
41.1418
45.4407
50.7672
57.0989
64.3717
72.4749
81.2514
90.5028
100
-300
-300
-300
-300
-300
-300
-300
-300
-300
-300
100
90.372
80.9784
72.0382
63.741
56.2373
49.6336
43.9927
39.3391
35.6675
32.9541
31.1684
30.2834
30.2834
31.1684
32.9541
35.6675
39.3391
43.9927
49.6336
56.2373
63.741
72.0382
80.9784
90.372
100
-300
-300
-300
-300
-300
-300
-300
-300
-300
-300
-300
-300
-300
-300
100
91.4328
83.0581
75.0549
67.5768
60.7443
54.6411
49.316
44.7892
41.0618
38.1265
35.9791
34.6255
34.0869
34.4002
35.6142
37.7837
40.9606
45.183
50.4644
56.7832
64.074
72.2234
81.0694
90.4074
100
-300
-300
-300
-300
-300
-300
-300
-300
-300
-300
100
90.3036
80.8433
71.8397
63.4836
55.9266
49.276
43.5952
38.9086
35.2109
32.4784
30.68
29.7887
29.7887
30.68
32.4784
35.2109
38.9086
43.5952
49.276
55.9266
63.4836
71.8397
80.8433
90.3036
100
-300
-300
-300
-300
-300
-300
-300
-300
-300
-300
-300
-300
-300
-300
100
91.7455
83.6714
75.9448
68.7082
62.0724
56.1126
50.8714
46.3653
42.5954
39.5591
37.2609
35.7199
34.9726
35.071
36.0777
38.0585
41.0735
45.1664
50.354
56.6157
63.8857
72.0477
80.9348
90.3345
100
-300
-300
-300
-300
-300
-300
-300
-300
-300
-300
100
90.2568
80.7509
71.7038
63.3074
55.714
49.0314
43.3232
38.614
34.8986
32.1529
30.3459
29.4503
29.4503
30.3459
32.1529
34.8986
38.614
43.3232
49.0314
55.714
63.3074
71.7038
80.7509
90.2568
100
-300
-300
-300
-300
-300
-300
-300
-300
-300
-300
-300
-300
-300
-300
100
92.1796
84.5239
77.1852
70.2916
63.9408
58.1965
53.092
48.6374
44.832
41.6773
39.1895
37.4057
36.3837
36.1966
36.9251
38.6493
41.4393
45.3454
50.3886
56.55
63.7639
71.9116
80.8208
90.2701
100
-300
-300
-300
-300
-300
-300
-300
-300
-300
-300
100
90.2255
80.6891
71.613
63.1896
55.5718
48.8678
43.1413
38.417
34.6897
31.9352
30.1224
29.2239
29.2239
30.1224
31.9352
34.6897
38.417
43.1413
48.8678
55.5718
63.1896
71.613
80.6891
90.2255
100
-300
-300
-300
-300
-300
-300
-300
-300
-300
-300
-300
-300
-300
-300
100
92.7412
85.6286
78.7961
72.3547
66.3856
60.9376
56.0302
51.663
47.829
44.5327
41.8042
39.706
38.3265
37.7679
38.1348
39.5245
42.0189
45.6759
50.5208
56.538
63.6626
71.7747
80.6971
90.1976
100
-300
-300
-300
-300
-300
-300
-300
-300
-300
-300
100
90.205
80.6487
71.5536
63.1126
55.4789
48.7608
43.0223
38.2882
34.5531
31.7929
29.9763
29.076
29.076
29.9763
31.7929
34.5531
38.2882
43.0223
48.7608
55.4789
63.1126
71.5536
80.6487
90.205
100
-300
-300
-300
-300
-300
-300
-300
-300
-300
-300
-300
-300
-300
-300
100
93.4351
86.9954
80.7939
74.9219
69.4412
64.3817
59.7441
55.51
51.6588
48.1917
45.1552
42.6494
40.8081
39.7742
39.6824
40.65
42.7711
46.1109
50.6999
56.5263
63.5287
71.5888
80.5258
90.0959
100
-300
-300
-300
-300
-300
-300
-300
-300
-300
-300
100
90.192
80.6228
71.5156
63.0633
55.4194
48.6924
42.9463
38.2059
34.4658
31.7019
29.8829
28.9813
28.9813
29.8829
31.7019
34.4658
38.2059
42.9463
48.6924
55.4194
63.0633
71.5156
80.6228
90.192
100
-300
-300
-300
-300
-300
-300
-300
-300
-300
-300
-300
-300
-300
-300
100
94.2626
88.6276
83.186
78.0074
73.1323
68.5685
64.2918
60.2553
56.4097
52.7382
49.3018
46.2631
43.8275
42.1941
41.5334
41.9831
43.6475
46.5975
50.8681
56.4531
63.2979
71.2913
80.2549
89.9347
100
-300
-300
-300
-300
-300
-300
-300
-300
-300
-300
100
90.1838
80.6067
71.4918
63.0325
55.3822
48.6496
42.8987
38.1544
34.4112
31.645
29.8245
28.9222
28.9222
29.8245
31.645
34.4112
38.1544
42.8987
48.6496
55.3822
63.0325
71.4918
80.6067
90.1838
100
-300
-300
-300
-300
-300
-300
-300
-300
-300
-300
-300
-300
-300
-300
100
95.2196
90.5183
85.9648
81.6073
77.4649
73.5219
69.7243
65.9835
62.1942
58.2844
54.3126
50.5631
47.3618
44.983
43.634
43.4667
44.5896
47.0747
50.9597
56.2451
62.8891
70.7976
79.808
89.6658
100
-300
-300
-300
-300
-300
-300
-300
-300
-300
-300
100
90.1788
80.5968
71.4773
63.0137
55.3595
48.6234
42.8696
38.1229
34.3778
31.6102
29.7887
28.886
28.886
29.7887
31.6101
34.3778
38.1229
42.8696
48.6234
55.3595
63.0137
71.4773
80.5968
90.1788
100
-300
-300
-300
-300
-300
-300
-300
-300
-300
-300
-300
-300
-300
-300
100
96.2949
92.6465
89.1023
85.6912
82.4147
79.237
76.0747
72.7861
69.1694
65.0083
60.2672
55.5345
51.3453
48.0586
45.9024
45.0255
45.5277
47.4741
50.9013
55.8176
62.2007
69.9896
79.0651
89.2047
100
-300
-300
-300
-300
-300
-300
-300
-300
-300
-300
100
90.1758
80.5909
71.4686
63.0024
55.3459
48.6078
42.8522
38.104
34.3578
31.5893
29.7674
28.8643
28.8643
29.7674
31.5893
34.3578
38.104
42.8522
48.6078
55.3459
63.0024
71.4686
80.5909
90.1758
100
-300
-300
-300
-300
-300
-300
-300
-300
-300
-300
-300
-300
-300
-300
100
97.4694
94.9747
92.5451
90.1945
87.9141
85.66
83.3343
80.7508
77.5759
73.264
67.2483
61.0864
55.6336
51.2813
48.2216
46.565
46.3832
47.7245
50.6187
55.0803
61.1113
68.7029
77.8275
88.3834
100
-300
-300
-300
-300
-300
-300
-300
-300
-300
-300
100
90.174
80.5874
71.4635
62.9958
55.3379
48.5986
42.842
38.093
34.3461
31.5771
29.7548
28.8517
28.8517
29.7548
31.5771
34.3461
38.0929
42.842
48.5986
55.3379
62.9958
71.4635
80.5874
90.174
100
-300
-300
-300
-300
-300
-300
-300
-300
-300
-300
-300
-300
-300
-300
100
98.7157
97.4488
96.2126
95.0122
93.8387
92.6602
91.4028
89.9025
87.7702
83.9583
75.2407
66.9315
59.9477
54.4389
50.4403
47.9779
47.0778
47.7624
50.0489
53.9519
59.4927
66.7219
75.7572
86.8164
100
-300
-300
-300
-300
-300
-300
-300
-300
-300
-300
100
90.173
80.5854
71.4606
62.992
55.3333
48.5934
42.8362
38.0866
34.3394
31.5701
29.7477
28.8444
28.8444
29.7476
31.5701
34.3393
38.0866
42.8361
48.5933
55.3333
62.9919
71.4605
80.5854
90.173
100
-300
-300
-300
-300
-300
-300
-300
-300
-300
-300
-300
-300
-300
-300
100
100
100
100
100
100
100
100
100
100
100
83.4831
72.3155
63.8226
57.257
52.3924
49.1611
47.5463
47.5457
49.1594
52.3896
57.2532
63.818
72.3105
83.479
100
100
100
100
100
100
100
100
100
100
100
100
90.1725
80.5843
71.4589
62.9899
55.3308
48.5904
42.8329
38.0831
34.3356
31.5662
29.7436
28.8403
28.8403
29.7436
31.5661
34.3355
38.083
42.8328
48.5903
55.3307
62.9898
71.4588
80.5842
90.1724
100
-300
-300
-300
-300
-300
-300
-300
-300
-300
-300
-300
-300
-300
-300
-300
-300
-300
-300
-300
-300
-300
-300
-300
-300
100
86.8165
75.7563
66.7195
59.4887
53.9461
50.0415
47.7534
47.0675
47.9665
50.4279
54.4257
59.9341
66.9178
75.2276
83.9468
87.7596
89.8925
91.3936
92.652
93.8315
95.0063
96.208
97.4457
98.7142
100
100
90.1721
80.5837
71.458
62.9887
55.3294
48.5888
42.8311
38.0811
34.3335
31.564
29.7414
28.838
28.838
29.7413
31.5639
34.3333
38.0809
42.8308
48.5885
55.3291
62.9885
71.4578
80.5835
90.1721
100
-300
-300
-300
-300
-300
-300
-300
-300
-300
-300
-300
-300
-300
-300
-300
-300
-300
-300
-300
-300
-300
-300
-300
-300
100
88.3804
77.8212
68.6933
61.0983
55.0643
50.5999
47.7033
46.36
46.5401
48.1954
51.2542
55.6061
61.0589
67.2215
73.2383
77.5514
80.7278
83.3131
85.641
87.8976
90.1808
92.5345
94.9676
97.4657
100
100
90.172
80.5834
71.4575
62.9881
55.3286
48.5879
42.8301
38.08
34.3324
31.5628
29.7401
28.8367
28.8367
29.74
31.5626
34.332
38.0796
42.8296
48.5874
55.3281
62.9876
71.4572
80.5831
90.1718
100
-300
-300
-300
-300
-300
-300
-300
-300
-300
-300
-300
-300
-300
-300
-300
-300
-300
-300
-300
-300
-300
-300
-300
-300
100
89.1981
79.0519
69.97
62.1751
55.7866
50.8655
47.4342
45.4844
44.9796
45.8545
48.0093
51.2954
55.4847
60.2182
64.9607
69.1239
72.7432
76.0352
79.2014
82.3838
85.6656
89.0826
92.6331
96.2881
100
100
90.1719
80.5832
71.4573
62.9877
55.3282
48.5874
42.8296
38.0795
34.3317
31.5621
29.7394
28.8359
28.8358
29.7391
31.5617
34.3311
38.0787
42.8287
48.5865
55.3273
62.9869
71.4566
80.5827
90.1716
100
-300
-300
-300
-300
-300
-300
-300
-300
-300
-300
-300
-300
-300
-300
-300
-300
-300
-300
-300
-300
-300
-300
-300
-300
100
89.6538
79.7842
70.7626
62.8437
56.1903
50.8967
47.0048
44.5139
43.3866
43.5506
44.8974
47.2752
50.4766
54.2273
58.2014
62.1146
65.9085
69.6552
73.4597
77.4108
81.5625
85.9303
90.4948
95.2077
100
100
90.1718
80.5831
71.4571
62.9875
55.328
48.5872
42.8292
38.0791
34.3313
31.5617
29.7389
28.8353
28.8352
29.7383
31.5608
34.3302
38.0777
42.8277
48.5855
55.3264
62.9861
71.4559
80.5822
90.1714
100
-300
-300
-300
-300
-300
-300
-300
-300
-300
-300
-300
-300
-300
-300
-300
-300
-300
-300
-300
-300
-300
-300
-300
-300
100
89.9142
80.2143
71.2317
63.2208
56.3601
50.7613
46.479
43.5193
41.8474
41.3923
42.0494
43.6812
46.117
49.1577
52.5979
56.2752
60.1285
64.1747
68.4632
73.0409
77.9316
83.1276
88.5879
94.2425
100
100
90.1718
80.583
71.4571
62.9874
55.3278
48.587
42.829
38.0788
34.331
31.5612
29.7383
28.8347
28.8344
29.7374
31.5598
34.329
38.0764
42.8263
48.5841
55.325
62.9848
71.4549
80.5815
90.171
100
-300
-300
-300
-300
-300
-300
-300
-300
-300
-300
-300
-300
-300
-300
-300
-300
-300
-300
-300
-300
-300
-300
-300
-300
100
90.0619
80.4586
71.4901
63.401
56.3725
50.5232
45.9149
42.5593
40.4259
39.4493
39.5353
40.5665
42.4081
44.9172
47.9601
51.4367
55.3006
59.5508
64.2079
69.2902
74.7968
80.6974
86.9297
93.4019
100
100
90.1718
80.583
71.457
62.9874
55.3277
48.5868
42.8288
38.0786
34.3306
31.5608
29.7377
28.8339
28.8333
29.7361
31.5581
34.3271
38.0743
42.824
48.5817
55.3227
62.9827
71.4532
80.5802
90.1704
100
-300
-300
-300
-300
-300
-300
-300
-300
-300
-300
-300
-300
-300
-300
-300
-300
-300
-300
-300
-300
-300
-300
-300
-300
100
90.1425
80.5882
71.6149
63.4557
56.2889
50.2348
45.3586
41.6762
39.1619
37.7577
37.3816
37.9358
39.3159
41.4194
44.1582
47.4699
51.3245
55.7178
60.6566
66.1415
72.1525
78.6401
85.5225
92.6875
100
100
90.1718
80.583
71.457
62.9873
55.3276
48.5867
42.8286
38.0782
34.3301
31.56
29.7367
28.8325
28.8316
29.7339
31.5555
34.324
38.0708
42.8202
48.5778
55.3189
62.9793
71.4503
80.5781
90.1693
100
-300
-300
-300
-300
-300
-300
-300
-300
-300
-300
-300
-300
-300
-300
-300
-300
-300
-300
-300
-300
-300
-300
-300
-300
100
90.1825
80.648
71.658
63.4358
56.1549
49.935
44.8425
40.8961
38.0747
36.3278
35.5846
35.7651
36.788
38.5803
41.0845
44.2635
48.1016
52.5974
57.7518
63.5544
69.9715
76.9383
84.356
92.0945
100
100
90.1718
80.5829
71.4569
62.9872
55.3275
48.5864
42.8282
38.0777
34.3293
31.5589
29.7351
28.8304
28.8289
29.7305
31.5513
34.319
38.0651
42.814
48.5714
55.3126
62.9735
71.4454
80.5747
90.1674
100
-300
-300
-300
-300
-300
-300
-300
-300
-300
-300
-300
-300
-300
-300
-300
-300
-300
-300
-300
-300
-300
-300
-300
-300
100
90.1984
80.6661
71.6534
63.3756
56.0017
49.6494
44.3853
40.23
37.1666
35.1506
34.1215
34.0128
34.7617
36.316
38.6396
41.7138
45.5344
50.1044
55.423
61.4732
68.2118
75.562
83.411
91.6137
100
100
90.1717
80.5829
71.4568
62.987
55.3272
48.5861
42.8277
38.0768
34.3281
31.5571
29.7327
28.8271
28.8245
29.725
31.5445
34.311
38.0559
42.804
48.5609
55.3022
62.964
71.4375
80.569
90.1645
100
-300
-300
-300
-300
-300
-300
-300
-300
-300
-300
-300
-300
-300
-300
-300
-300
-300
-300
-300
-300
-300
-300
-300
-300
100
90.1999
80.66
71.6226
63.2969
55.8481
49.3918
43.9943
39.6774
36.4272
34.2046
32.9567
32.6281
33.1692
34.5433
36.7295
39.7224
43.5269
48.151
53.5936
59.8342
66.8228
74.4735
82.6626
91.2326
100
100
90.1717
80.5828
71.4567
62.9868
55.3269
48.5855
42.8268
38.0755
34.3262
31.5544
29.7289
28.822
28.8177
29.7163
31.5338
34.2982
38.0413
42.788
48.5441
55.2856
62.9487
71.4247
80.5597
90.1596
100
-300
-300
-300
-300
-300
-300
-300
-300
-300
-300
-300
-300
-300
-300
-300
-300
-300
-300
-300
-300
-300
-300
-300
-300
100
90.1928
80.6397
71.5777
63.2116
55.7034
49.167
43.668
39.229
35.8381
33.4603
32.0487
31.5558
31.942
33.1817
35.265
38.196
41.9872
46.6505
52.1858
58.5705
65.75
73.6315
82.083
90.9373
100
100
90.1717
80.5827
71.4565
62.9865
55.3264
48.5847
42.8255
38.0736
34.3233
31.5503
29.7231
28.8141
28.8074
29.703
31.5173
34.2785
38.0186
42.7628
48.5178
55.2594
62.9245
71.4043
80.545
90.1518
100
-300
-300
-300
-300
-300
-300
-300
-300
-300
-300
-300
-300
-300
-300
-300
-300
-300
-300
-300
-300
-300
-300
-300
-300
100
90.1798
80.6101
71.5242
63.1241
55.5695
48.9726
43.3983
38.8695
35.3757
32.8845
31.3534
30.7407
31.014
32.1554
34.1632
37.0485
40.8294
45.5211
51.1247
57.6167
64.9391
72.9943
81.6441
90.7134
100
100
90.1716
80.5826
71.4562
62.9861
55.3256
48.5835
42.8237
38.0707
34.3191
31.5442
29.7146
28.8024
28.7918
29.6829
31.4923
34.2484
37.9838
42.7242
48.4769
55.2187
62.8866
71.3724
80.5218
90.1396
100
-300
-300
-300
-300
-300
-300
-300
-300
-300
-300
-300
-300
-300
-300
-300
-300
-300
-300
-300
-300
-300
-300
-300
-300
100
90.1617
80.572
71.4625
63.0332
55.4424
48.8009
43.1727
38.5803
35.014
32.443
30.8278
30.1305
30.3239
31.3957
33.3496
36.2023
39.9758
44.688
50.3415
56.9119
64.3393
72.5226
81.3189
90.5475
100
100
90.1715
80.5824
71.4559
62.9854
55.3246
48.5818
42.821
38.0667
34.313
31.5354
29.7021
28.7853
28.7689
29.6533
31.4552
34.2035
37.9315
42.6659
48.4149
55.1565
62.8285
71.323
80.4858
90.1207
100
-300
-300
-300
-300
-300
-300
-300
-300
-300
-300
-300
-300
-300
-300
-300
-300
-300
-300
-300
-300
-300
-300
-300
-300
100
90.1372
80.5229
71.3883
62.9329
55.3136
48.6401
42.9753
38.3408
34.7267
32.103
30.4318
29.6779
29.8174
30.8418
32.7591
35.5896
39.3585
44.0858
49.7751
56.402
63.9051
72.1809
81.0832
90.4273
100
100
90.1714
80.5821
71.4553
62.9845
55.3231
48.5794
42.8172
38.0609
34.3044
31.5229
29.6844
28.7608
28.7361
29.6106
31.4014
34.1379
37.8546
42.5794
48.3223
55.0628
62.7403
71.2478
80.4307
90.0915
100
-300
-300
-300
-300
-300
-300
-300
-300
-300
-300
-300
-300
-300
-300
-300
-300
-300
-300
-300
-300
-300
-300
-300
-300
100
90.1034
80.4571
71.2936
62.8126
55.1704
48.4752
42.7881
38.1294
34.4881
31.8339
30.1295
29.3412
29.4473
30.4421
32.3364
35.1532
38.92
43.6588
49.3738
56.0406
63.5973
71.9387
80.916
90.342
100
100
90.1712
80.5817
71.4546
62.9833
55.3211
48.5761
42.8121
38.053
34.2926
31.5056
29.6597
28.7266
28.69
29.5502
31.3247
34.0439
37.7434
42.4533
48.186
54.9238
62.6084
71.1344
80.3472
90.0471
100
-300
-300
-300
-300
-300
-300
-300
-300
-300
-300
-300
-300
-300
-300
-300
-300
-300
-300
-300
-300
-300
-300
-300
-300
100
90.0553
80.3653
71.1656
62.6572
54.9957
48.2875
42.5911
37.9241
34.2734
31.6077
29.8892
29.0849
29.1743
30.1537
32.0359
34.8459
38.6133
43.3611
49.0946
55.7896
63.3836
71.7705
80.8
90.2828
100
100
90.171
80.5812
71.4537
62.9817
55.3184
48.5718
42.8053
38.0425
34.2768
31.4823
29.6264
28.6801
28.6268
29.4668
31.218
33.9118
37.5858
42.2729
47.9891
54.7208
62.4138
70.9654
80.2216
89.9799
100
-300
-300
-300
-300
-300
-300
-300
-300
-300
-300
-300
-300
-300
-300
-300
-300
-300
-300
-300
-300
-300
-300
-300
-300
100
89.9855
80.2337
70.9861
62.4458
54.7677
48.055
42.362
37.7022
34.0592
31.3994
29.6838
28.8793
28.9663
29.9421
31.8212
34.6305
38.4007
43.1564
48.9036
55.6183
63.238
71.656
80.7211
90.2425
100
100
90.1707
80.5806
71.4525
62.9797
55.315
48.5662
42.7964
38.0288
34.256
31.4516
29.5822
28.618
28.542
29.3541
31.0727
33.7303
37.367
42.0196
47.7091
54.4283
62.1295
70.7154
80.0338
89.8788
100
-300
-300
-300
-300
-300
-300
-300
-300
-300
-300
-300
-300
-300
-300
-300
-300
-300
-300
-300
-300
-300
-300
-300
-300
100
89.8825
80.0417
70.7288
62.1501
54.4583
47.7509
42.0759
37.4404
33.8231
31.1866
29.4903
28.7003
28.7974
29.78
31.664
34.4776
38.2533
43.0166
48.7743
55.5032
63.1406
71.5795
80.6684
90.2156
100
100
90.1704
80.5798
71.451
62.9771
55.3106
48.5592
42.7852
38.0113
34.2294
31.4122
29.5251
28.5374
28.431
29.2055
30.8793
33.4863
37.0695
41.6704
47.3175
54.0128
61.7189
70.3482
79.7539
89.7263
100
-300
-300
-300
-300
-300
-300
-300
-300
-300
-300
-300
-300
-300
-300
-300
-300
-300
-300
-300
-300
-300
-300
-300
-300
100
89.7287
79.7589
70.3567
61.7318
54.0314
47.3435
41.7053
37.1147
33.5434
30.9494
29.2892
28.5283
28.6476
29.6466
31.5426
34.3656
38.1493
42.9205
48.6871
55.4264
63.0761
71.5292
80.6338
90.198
100
100
90.17
80.5788
71.4493
62.974
55.3054
48.5506
42.7714
37.9897
34.1964
31.3629
29.4533
28.4353
28.2895
29.0144
30.628
33.1658
36.6735
41.1989
46.7795
53.4306
61.1313
69.8109
79.3353
89.4946
100
-300
-300
-300
-300
-300
-300
-300
-300
-300
-300
-300
-300
-300
-300
-300
-300
-300
-300
-300
-300
-300
-300
-300
-300
100
89.496
79.3384
69.8161
61.1392
53.442
46.7953
41.22
36.7009
33.2003
30.6703
29.0648
28.3481
28.5017
29.5264
31.4415
34.2784
38.0728
42.8529
48.6277
55.3752
63.0337
71.4964
80.6114
90.1867
100
100
90.1695
80.5777
71.4472
62.9703
55.2992
48.5403
42.7548
37.9637
34.1564
31.3029
29.3654
28.3095
28.1137
28.7748
30.31
32.7551
36.159
40.5758
46.0544
52.6273
60.2981
69.0258
78.7046
89.136
100
-300
-300
-300
-300
-300
-300
-300
-300
-300
-300
-300
-300
-300
-300
-300
-300
-300
-300
-300
-300
-300
-300
-300
-300
100
89.1369
78.7065
69.0289
60.3028
52.6341
46.0638
40.5883
36.1752
32.7755
30.335
28.8046
28.1483
28.3486
29.4085
31.3493
34.2048
38.0127
42.803
48.5859
55.3404
63.0056
71.4751
80.597
90.1794
100
100
90.169
80.5765
71.4449
62.9662
55.2921
48.5285
42.7356
37.9333
34.1094
31.232
29.2607
28.1587
27.9014
28.4829
29.9184
32.2431
35.5077
39.7724
45.098
51.538
59.1292
67.8785
77.7399
88.5626
100
-300
-300
-300
-300
-300
-300
-300
-300
-300
-300
-300
-300
-300
-300
-300
-300
-300
-300
-300
-300
-300
-300
-300
-300
100
88.5632
77.741
67.8803
59.1319
51.542
45.1035
39.7797
35.5172
32.2549
29.9329
28.5001
27.9214
28.1813
29.2857
31.2588
34.1374
37.9617
42.7635
48.5549
55.316
62.9867
71.4611
80.5877
90.1747
100
100
90.1685
80.5753
71.4425
62.9618
55.2844
48.5154
42.7141
37.8989
34.0558
31.1505
29.1398
27.9831
27.6523
28.1375
29.4502
31.6232
34.7071
38.7654
43.8692
50.093
57.5123
66.2032
76.2315
87.5934
100
-300
-300
-300
-300
-300
-300
-300
-300
-300
-300
-300
-300
-300
-300
-300
-300
-300
-300
-300
-300
-300
-300
-300
-300
100
87.5937
76.2322
66.2043
57.5139
50.0953
43.8724
38.7695
34.7124
31.6299
29.4584
28.1473
27.6637
27.996
29.1539
31.1658
34.0717
37.915
42.7299
48.5304
55.2979
62.9734
71.4517
80.5817
90.1718
100
100
90.1681
80.5742
71.4402
62.9574
55.2764
48.5016
42.691
37.8614
33.9968
31.0601
29.0044
27.7852
27.3693
27.7415
28.9081
30.8968
33.7547
37.5444
42.3411
48.2325
55.3269
63.775
73.8136
85.8045
100
-300
-300
-300
-300
-300
-300
-300
-300
-300
-300
-300
-300
-300
-300
-300
-300
-300
-300
-300
-300
-300
-300
-300
-300
100
85.8047
73.8139
63.7756
55.3278
48.2338
42.3428
37.5467
33.7577
30.9006
28.9127
27.747
27.3756
27.7923
29.0123
31.0685
34.0057
37.8703
42.6998
48.5099
55.284
62.9639
71.4453
80.5778
90.1699
100
100
90.1679
80.5735
71.4385
62.9536
55.2689
48.4879
42.6673
37.8222
33.9343
30.9631
28.8579
27.5693
27.0582
27.3027
28.3018
30.0755
32.6633
36.1208
40.5169
45.9358
52.4881
60.3503
69.8858
82.0551
100
100
100
100
100
100
100
100
100
100
100
100
100
100
100
100
100
100
100
100
100
100
100
100
100
100
82.0552
69.886
60.3506
52.4886
45.9365
40.5179
36.122
32.665
30.0776
28.3043
27.3057
27.0616
27.5732
28.8622
30.9677
33.9391
37.8271
42.6721
48.4924
55.273
62.9571
71.4413
80.5755
90.1689
100
100
90.1681
80.5736
71.4379
62.9512
55.263
48.4757
42.6449
37.7837
33.8712
30.8635
28.7056
27.3424
26.7283
26.8337
27.6484
29.1822
31.4634
34.5342
38.447
43.2614
49.0434
55.8676
63.8072
72.8237
82.0551
85.8045
87.5933
88.5625
89.1358
89.4941
89.7255
89.8774
89.9774
90.0427
90.0841
90.1085
90.1197
90.1197
90.1085
90.0841
90.0427
89.9774
89.8774
89.7255
89.4941
89.1358
88.5625
87.5933
85.8045
82.0551
72.8238
63.8073
55.8678
49.0437
43.2618
38.4475
34.5349
31.4643
29.1833
27.6497
26.8353
26.7302
27.3445
28.7078
30.8659
33.8737
37.7863
42.6475
48.4781
55.2652
62.9531
71.4394
80.5747
90.1686
100
100
90.169
80.5752
71.4394
62.9515
55.2603
48.4672
42.6264
37.7489
33.8114
30.7663
28.554
27.1136
26.3923
26.3517
26.9715
28.25
30.2014
32.8511
36.2297
40.3646
45.2684
50.9185
57.2062
63.8072
69.8857
73.8135
76.2314
77.7396
78.7041
79.3344
79.7523
80.031
80.2167
80.3388
80.4167
80.4625
80.4837
80.4837
80.4625
80.4167
80.3388
80.2167
80.031
79.7523
79.3344
78.7041
77.7396
76.2314
73.8135
69.8857
63.8072
57.2063
50.9186
45.2686
40.3648
36.23
32.8515
30.2018
28.2506
26.9722
26.3525
26.3933
27.1147
28.5552
30.7676
33.8128
37.7503
42.6277
48.4684
55.2614
62.9525
71.4402
80.5757
90.1693
100
100
90.1712
80.5792
71.4445
62.9566
55.2633
48.4653
42.6153
37.7224
33.7605
30.6785
28.412
26.8943
26.0651
25.8772
26.2997
27.3185
28.9334
31.1527
33.9857
37.432
41.4662
46.0152
50.9185
55.8676
60.3502
63.7749
66.203
67.8781
69.0251
69.8097
70.346
70.7115
70.9586
71.1228
71.2283
71.2907
71.3197
71.3197
71.2907
71.2283
71.1228
70.9586
70.7115
70.346
69.8097
69.0251
67.8782
66.203
63.7749
60.3502
55.8676
50.9186
46.0153
41.4663
37.4321
33.9859
31.1529
28.9336
27.3188
26.3
25.8776
26.0656
26.8949
28.4126
30.6791
33.7612
37.7231
42.616
48.466
55.2639
62.9571
71.4449
80.5795
90.1713
100
100
90.1754
80.5873
71.4557
62.9695
55.276
48.4747
42.6171
37.7103
33.7256
30.6086
28.2901
26.6978
25.764
25.4328
25.6633
26.4294
27.7173
29.5203
31.8304
34.6283
37.8692
41.4662
45.2684
49.0434
52.488
55.3268
57.5121
59.1287
60.2973
61.1298
61.7163
62.1248
62.4056
62.5945
62.7169
62.7898
62.8237
62.8237
62.7898
62.7169
62.5945
62.4056
62.1248
61.7163
61.1298
60.2973
59.1287
57.5121
55.3268
52.488
49.0434
45.2684
41.4662
37.8693
34.6283
31.8305
29.5204
27.7174
26.4295
25.6635
25.433
25.7642
26.698
28.2905
30.6089
33.726
37.7107
42.6174
48.475
55.2763
62.9698
71.4559
80.5875
90.1755
100
100
90.1829
80.6018
71.4763
62.9948
55.3038
48.5019
42.6392
37.7212
33.7166
30.5677
28.2014
26.5395
25.508
25.0427
25.0933
25.6232
26.6069
28.0254
29.8586
32.0764
34.6283
37.432
40.3646
43.2613
45.9358
48.2324
50.0928
51.5376
52.6265
53.429
54.0098
54.4231
54.7118
54.9086
55.0372
55.1143
55.1504
55.1504
55.1143
55.0372
54.9086
54.7118
54.4231
54.0098
53.429
52.6265
51.5376
50.0928
48.2324
45.9358
43.2614
40.3646
37.432
34.6283
32.0764
29.8586
28.0254
26.6069
25.6232
25.0934
25.0428
25.5081
26.5397
28.2016
30.5679
33.7168
37.7213
42.6393
48.502
55.3039
62.9949
71.4764
80.6019
90.1829
100
100
90.1953
80.6262
71.5115
63.0391
55.3548
48.5562
42.6923
37.7669
33.7465
30.5706
28.1621
26.4381
25.3184
24.732
24.6202
24.9373
25.6485
26.7256
28.1405
29.8586
31.8304
33.9857
36.2297
38.447
40.5169
42.3409
43.869
45.0975
46.0534
46.7779
47.3145
47.7038
47.98
48.1705
48.2962
48.3721
48.4077
48.4077
48.3721
48.2962
48.1705
47.98
47.7038
47.3145
46.7779
46.0534
45.0975
43.869
42.3409
40.5169
38.447
36.2297
33.9857
31.8304
29.8586
28.1405
26.7256
25.6485
24.9373
24.6202
24.732
25.3185
26.4381
28.1622
30.5707
33.7466
37.767
42.6924
48.5563
55.3548
63.0392
71.5116
80.6262
90.1953
100
100
90.2152
80.6653
71.5685
63.1118
55.4404
48.6509
42.7913
37.8638
33.8332
30.6363
28.1929
26.4157
25.2197
24.5277
24.2743
24.4063
24.8817
25.6657
26.7256
28.0254
29.5203
31.1527
32.8511
34.5341
36.1207
37.5443
38.7651
39.7719
40.5749
41.1972
41.6675
42.0145
42.2641
42.4383
42.5543
42.6248