# vtk DataFile Version 2.0
LBE two cylinders
ASCII
DATASET STRUCTURED_POINTS
DIMENSIONS 76 76 1
ASPECT_RATIO 1 1 1
ORIGIN 0 0 0
POINT_DATA 5776
SCALARS temp double 1
LOOKUP_TABLE default
100
100
100
100
100
100
100
100
100
100
100
100
100
100
100
100
100
100
100
100
100
100
100
100
100
100
-300
-300
-300
-300
-300
-300
-300
-300
-300
-300
-300
-300
-300
-300
100
100
100
100
100
100
100
100
100
100
100
100
100
100
100
100
100
100
100
100
100
100
100
100
100
100
-300
-300
-300
-300
-300
-300
-300
-300
-300
-300
100
97.5576
95.2324
93.1248
91.3056
89.8099
88.6381
87.7632
87.141
86.7204
86.4529
86.298
86.2278
86.2278
86.298
86.4529
86.7204
87.141
87.7632
88.6381
89.8099
91.3056
93.1248
95.2324
97.5576
100
-300
-300
-300
-300
-300
-300
-300
-300
-300
-300
-300
-300
-300
-300
100
97.5576
95.2324
93.1248
91.3056
89.8099
88.6381
87.7632
87.141
86.7204
86.4529
86.298
86.2278
86.2278
86.298
86.4529
86.7204
87.141
87.7632
88.6381
89.8099
91.3056
93.1248
95.2324
97.5576
100
-300
-300
-300
-300
-300
-300
-300
-300
-300
-300
100
95.2324
90.6936
86.5796
83.0286
80.109
77.8217
76.1141
74.8996
74.0788
73.5566
73.2544
73.1174
73.1174
73.2544
73.5566
74.0788
74.8996
76.1141
77.8217
80.109
83.0286
86.5796
90.6936
95.2324
100
-300
-300
-300
-300
-300
-300
-300
-300
-300
-300
-300
-300
-300
-300
100
95.2324
90.6936
86.5796
83.0286
80.109
77.8218
76.1141
74.8997
74.0789
73.5566
73.2545
73.1174
73.1174
73.2544
73.5566
74.0788
74.8996
76.1141
77.8217
80.109
83.0286
86.5796
90.6936
95.2324
100
-300
-300
-300
-300
-300
-300
-300
-300
-300
-300
100
93.1248
86.5796
80.647
75.5264
71.3163
68.0182
65.556
63.8049
62.6215
61.8686
61.4329
61.2353
61.2353
61.4329
61.8686
62.6215
63.8049
65.556
68.0182
71.3163
75.5264
80.647
86.5796
93.1248
100
-300
-300
-300
-300
-300
-300
-300
-300
-300
-300
-300
-300
-300
-300
100
93.1248
86.5796
80.6471
75.5265
71.3165
68.0184
65.5561
63.805
62.6216
61.8687
61.433
61.2354
61.2354
61.433
61.8686
62.6215
63.8049
65.556
68.0182
71.3163
75.5264
80.647
86.5796
93.1248
100
-300
-300
-300
-300
-300
-300
-300
-300
-300
-300
100
91.3055
83.0285
75.5263
69.0509
63.7272
59.5568
56.4435
54.2295
52.7333
51.7815
51.2307
50.9809
50.9809
51.2307
51.7815
52.7333
54.2295
56.4435
59.5568
63.7272
69.0509
75.5263
83.0285
91.3055
100
-300
-300
-300
-300
-300
-300
-300
-300
-300
-300
-300
-300
-300
-300
100
91.3056
83.0286
75.5265
69.0512
63.7276
59.5572
56.4439
54.2299
52.7336
51.7817
51.231
50.9811
50.9811
51.2308
51.7815
52.7334
54.2296
56.4436
59.5569
63.7272
69.0509
75.5263
83.0285
91.3055
100
-300
-300
-300
-300
-300
-300
-300
-300
-300
-300
100
89.8096
80.1086
71.3158
63.7268
57.4876
52.6003
48.9519
46.3576
44.6044
43.4892
42.8439
42.5513
42.5513
42.8439
43.4892
44.6044
46.3576
48.9519
52.6003
57.4876
63.7268
71.3158
80.1086
89.8096
100
-300
-300
-300
-300
-300
-300
-300
-300
-300
-300
-300
-300
-300
-300
100
89.8099
80.109
71.3164
63.7275
57.4885
52.6012
48.9529
46.3585
44.6053
43.4899
42.8446
42.5518
42.5517
42.8443
43.4894
44.6046
46.3577
48.952
52.6003
57.4876
63.7268
71.3158
80.1086
89.8096
100
-300
-300
-300
-300
-300
-300
-300
-300
-300
-300
100
88.6375
77.8206
68.0167
59.5552
52.5989
47.1501
43.0828
40.1907
38.2365
36.9934
36.2742
35.948
35.948
36.2742
36.9934
38.2365
40.1907
43.0828
47.1501
52.5989
59.5552
68.0167
77.8206
88.6375
100
-300
-300
-300
-300
-300
-300
-300
-300
-300
-300
-300
-300
-300
-300
100
88.638
77.8217
68.0183
59.5571
52.6011
47.1525
43.0852
40.193
38.2386
36.9953
36.2758
35.9494
35.9491
36.275
36.9939
38.2369
40.191
43.083
47.1502
52.599
59.5552
68.0167
77.8206
88.6375
100
-300
-300
-300
-300
-300
-300
-300
-300
-300
-300
100
87.7618
76.1114
65.5522
56.439
48.9473
43.0793
38.6992
35.5849
33.4806
32.1422
31.3679
31.0168
31.0168
31.3679
32.1422
33.4806
35.5849
38.6992
43.0793
48.9473
56.439
65.5522
76.1114
87.7618
100
-300
-300
-300
-300
-300
-300
-300
-300
-300
-300
-300
-300
-300
-300
100
87.7632
76.114
65.5559
56.4436
48.9525
43.0848
38.7049
35.5904
33.4857
32.1468
31.3718
31.02
31.0193
31.3699
32.1436
33.4816
35.5855
38.6996
43.0795
48.9474
56.439
65.5522
76.1114
87.7618
100
-300
-300
-300
-300
-300
-300
-300
-300
-300
-300
100
87.1377
74.8933
63.796
54.2185
46.3453
40.1787
35.5761
32.3036
30.0926
28.6863
27.8729
27.504
27.504
27.8729
28.6863
30.0926
32.3036
35.5761
40.1787
46.3453
54.2185
63.796
74.8933
87.1377
100
-300
-300
-300
-300
-300
-300
-300
-300
-300
-300
-300
-300
-300
-300
100
87.1409
74.8994
63.8045
54.2291
46.3574
40.1916
35.5892
32.3163
30.1044
28.6969
27.882
27.5115
27.5099
27.8774
28.6896
30.0949
32.3051
35.577
40.1792
46.3455
54.2185
63.7959
74.8933
87.1377
100
-300
-300
-300
-300
-300
-300
-300
-300
-300
-300
100
86.7132
74.0648
62.6014
52.7081
44.5756
38.2062
33.4522
30.0723
27.7888
26.3366
25.4965
25.1156
25.1156
25.4965
26.3366
27.7888
30.0723
33.4522
38.2062
44.5756
52.7081
62.6014
74.0648
86.7132
100
-300
-300
-300
-300
-300
-300
-300
-300
-300
-300
-300
-300
-300
-300
100
86.7202
74.0782
62.6205
52.7318
44.6026
38.2349
33.4814
30.1007
27.8153
26.3602
25.5168
25.1323
25.1288
25.5066
26.3439
27.7939
30.0756
33.4542
38.2073
44.5761
52.7083
62.6013
74.0647
86.7131
100
-300
-300
-300
-300
-300
-300
-300
-300
-300
-300
100
86.4374
73.5265
61.8252
51.7269
43.426
36.9248
32.0727
28.6232
26.2927
24.8106
23.9533
23.5645
23.5645
23.9533
24.8106
26.2927
28.6232
32.0727
36.9248
43.426
51.7269
61.8252
73.5265
86.4374
100
-300
-300
-300
-300
-300
-300
-300
-300
-300
-300
-300
-300
-300
-300
100
86.4523
73.5553
61.8663
51.7779
43.484
36.9868
32.1356
28.6843
26.3497
24.8616
23.9972
23.6008
23.5933
23.9751
24.8264
26.3036
28.6302
32.077
36.9271
43.427
51.7272
61.8251
73.5262
86.4372
100
-300
-300
-300
-300
-300
-300
-300
-300
-300
-300
100
86.2661
73.1921
61.3433
51.1177
42.7123
36.1293
31.2163
27.7236
25.364
23.8634
22.9954
22.6018
22.6018
22.9954
23.8634
25.364
27.7236
31.2163
36.1293
42.7123
51.1177
61.3433
73.1921
86.2661
100
-300
-300
-300
-300
-300
-300
-300
-300
-300
-300
-300
-300
-300
-300
100
86.2969
73.2518
61.4283
51.2231
42.8323
36.2577
31.3469
27.8505
25.4825
23.9696
23.0869
22.6774
22.6617
23.0409
23.8963
25.3866
27.7382
31.2251
36.134
42.7142
51.1179
61.3427
73.1914
86.2656
100
-300
-300
-300
-300
-300
-300
-300
-300
-300
-300
100
86.1643
72.9935
61.057
50.7558
42.2883
35.6569
30.7078
27.1894
24.8125
23.301
22.4268
22.0303
22.0303
22.4268
23.301
24.8125
27.1894
30.7078
35.6569
42.2883
50.7558
61.057
72.9935
86.1643
100
-300
-300
-300
-300
-300
-300
-300
-300
-300
-300
-300
-300
-300
-300
100
86.2256
73.1124
61.2263
50.9658
42.5276
35.9132
30.9687
27.4435
25.0499
23.514
22.6103
22.182
22.1505
22.5179
23.3669
24.8578
27.2186
30.7251
35.6658
42.2917
50.7559
61.0555
72.9918
86.1632
100
-300
-300
-300
-300
-300
-300
-300
-300
-300
-300
100
86.1065
72.8806
60.8942
50.55
42.0473
35.3883
30.4187
26.8858
24.4991
22.9814
22.1036
21.7055
21.7055
22.1036
22.9814
24.4991
26.8858
30.4187
35.3883
42.0473
50.55
60.8942
72.8806
86.1065
100
-300
-300
-300
-300
-300
-300
-300
-300
-300
-300
-300
-300
-300
-300
100
86.2238
73.1083
61.2187
50.953
42.5068
35.8809
30.9208
27.3754
24.9571
23.3927
22.4582
21.9987
21.9378
22.2795
23.1085
24.5862
26.9417
30.4515
35.4048
42.0529
50.5492
60.8903
72.8765
86.1039
100
-300
-300
-300
-300
-300
-300
-300
-300
-300
-300
100
86.0749
72.8191
60.8055
50.4379
41.916
35.242
30.2613
26.7204
24.3285
22.8074
21.9276
21.5286
21.5286
21.9276
22.8074
24.3285
26.7204
30.2613
35.242
41.916
50.4379
60.8055
72.8191
86.0749
100
-300
-300
-300
-300
-300
-300
-300
-300
-300
-300
-300
-300
-300
-300
100
86.2912
73.2387
61.404
51.1816
42.7649
36.1532
31.1913
27.6287
25.1793
23.5723
22.5875
22.0744
21.9608
22.2546
23.0432
24.4895
26.8231
30.3207
35.2708
41.9243
50.4341
60.7963
72.8097
86.0693
100
-300
-300
-300
-300
-300
-300
-300
-300
-300
-300
100
86.0585
72.7869
60.7591
50.3794
41.8474
35.1656
30.179
26.6341
24.2394
22.7165
21.8357
21.4363
21.4363
21.8357
22.7165
24.2394
26.6341
30.179
35.1656
41.8474
50.3794
60.7591
72.7869
86.0585
100
-300
-300
-300
-300
-300
-300
-300
-300
-300
-300
-300
-300
-300
-300
100
86.4417
73.5308
61.8207
51.6997
43.3564
36.7875
31.8374
28.2563
25.7612
24.0863
23.0182
22.4141
22.21
22.4204
23.1371
24.5254
26.8152
30.282
35.2131
41.8579
50.3679
60.7382
72.7667
86.0463
100
-300
-300
-300
-300
-300
-300
-300
-300
-300
-300
100
86.0502
72.7708
60.7359
50.35
41.8131
35.1274
30.1378
26.5908
24.1947
22.671
21.7897
21.3901
21.3901
21.7897
22.671
24.1947
26.5908
30.1378
35.1274
41.8131
50.35
60.7359
72.7708
86.0502
100
-300
-300
-300
-300
-300
-300
-300
-300
-300
-300
-300
-300
-300
-300
100
86.7032
74.0387
62.5467
52.6044
44.3931
37.9052
32.9835
29.38
26.8159
25.0333
23.8299
23.0766
22.723
22.795
23.392
24.6827
26.8971
30.3084
35.2011
41.8219
50.3204
60.6904
72.7284
86.0251
100
-300
-300
-300
-300
-300
-300
-300
-300
-300
-300
100
86.0462
72.763
60.7247
50.3359
41.7965
35.1089
30.118
26.57
24.1733
22.6491
21.7676
21.3678
21.3678
21.7676
22.6491
24.1733
26.57
30.118
35.1089
41.7965
50.3359
60.7247
72.763
86.0462
100
-300
-300
-300
-300
-300
-300
-300
-300
-300
-300
-300
-300
-300
-300
100
87.1158
74.8409
63.6945
54.0376
46.0398
39.6866
34.8182
31.1877
28.5217
26.5735
25.158
24.1686
23.5774
23.4296
23.8367
24.9724
27.0661
30.3872
35.2153
41.7929
50.2671
60.6302
72.6771
85.9957
100
-300
-300
-300
-300
-300
-300
-300
-300
-300
-300
100
86.0444
72.7595
60.7196
50.3294
41.7889
35.1004
30.1089
26.5604
24.1633
22.639
21.7573
21.3575
21.3575
21.7573
22.639
24.1633
26.5604
30.1089
35.1004
41.7889
50.3294
60.7196
72.7595
86.0444
100
-300
-300
-300
-300
-300
-300
-300
-300
-300
-300
-300
-300
-300
-300
100
87.7288
76.0333
65.4031
56.175
48.5022
42.3599
37.5832
33.9246
31.1156
28.9229
27.1868
25.8364
24.882
24.399
24.5178
25.4188
27.3296
30.5127
35.2401
41.7483
50.1814
60.5309
72.5911
85.9458
100
-300
-300
-300
-300
-300
-300
-300
-300
-300
-300
100
86.0436
72.7579
60.7173
50.3264
41.7855
35.0966
30.1048
26.5561
24.1589
22.6345
21.7528
21.353
21.353
21.7528
22.6345
24.1589
26.5561
30.1048
35.0966
41.7855
50.3264
60.7173
72.7579
86.0436
100
-300
-300
-300
-300
-300
-300
-300
-300
-300
-300
-300
-300
-300
-300
100
88.5942
77.7182
67.8206
59.2061
52.0052
46.1789
41.5537
37.8768
34.88
32.3419
30.1371
28.2532
26.7625
25.7883
25.4879
26.0498
27.6963
30.6786
35.2568
41.6592
50.0273
60.3546
72.4374
85.8561
100
-300
-300
-300
-300
-300
-300
-300
-300
-300
-300
100
86.0432
72.7572
60.7163
50.3252
41.784
35.095
30.103
26.5543
24.157
22.6325
21.7508
21.351
21.351
21.7508
22.6325
24.157
26.5543
30.103
35.095
41.784
50.3252
60.7163
72.7572
86.0432
100
-300
-300
-300
-300
-300
-300
-300
-300
-300
-300
-300
-300
-300
-300
100
89.7583
79.9866
71.0806
63.3039
56.7589
51.3885
47.0062
43.3454
40.1243
37.1206
34.2493
31.5971
29.3399
27.6738
26.7909
26.8856
28.1684
30.8717
35.2377
41.4842
49.752
60.0426
72.1632
85.6939
100
-300
-300
-300
-300
-300
-300
-300
-300
-300
-300
100
86.0431
72.7569
60.7159
50.3247
41.7834
35.0943
30.1023
26.5535
24.1562
22.6317
21.75
21.3502
21.3502
21.75
22.6317
24.1562
26.5535
30.1023
35.0943
41.7834
50.3247
60.7159
72.7569
86.0431
100
-300
-300
-300
-300
-300
-300
-300
-300
-300
-300
-300
-300
-300
-300
100
91.2506
82.8972
75.2709
68.5864
62.9143
58.1783
54.1756
50.6135
47.1667
43.5693
39.7612
36.0199
32.6989
30.0965
28.4418
27.9253
28.7328
31.0662
35.142
41.1644
49.2775
59.5038
71.6797
85.4013
100
-300
-300
-300
-300
-300
-300
-300
-300
-300
-300
100
86.043
72.7568
60.7157
50.3245
41.7832
35.0941
30.102
26.5532
24.1559
22.6314
21.7497
21.3499
21.3499
21.7497
22.6314
24.1559
26.5532
30.102
35.0941
41.7832
50.3245
60.7157
72.7568
86.043
100
-300
-300
-300
-300
-300
-300
-300
-300
-300
-300
-300
-300
-300
-300
100
93.0729
86.4549
80.4024
75.0759
70.5147
66.6288
63.2032
59.9093
56.329
52.0379
46.8856
41.6001
36.8419
33.0291
30.4068
29.1355
29.3554
31.2221
34.9156
40.6222
48.4954
58.5986
70.8365
84.8687
100
-300
-300
-300
-300
-300
-300
-300
-300
-300
-300
100
86.043
72.7567
60.7156
50.3244
41.7831
35.0939
30.1019
26.5531
24.1558
22.6313
21.7496
21.3497
21.3497
21.7496
22.6313
24.1558
26.5531
30.1019
35.0939
41.7831
50.3244
60.7156
72.7567
86.043
100
-300
-300
-300
-300
-300
-300
-300
-300
-300
-300
-300
-300
-300
-300
100
95.1915
90.5949
86.3843
82.6647
79.4511
76.6556
74.0748
71.3608
67.96
63.0416
55.774
48.2602
41.6258
36.3391
32.5841
30.4428
29.9804
31.2881
34.4967
39.7678
47.2664
57.1213
69.3725
83.8698
100
-300
-300
-300
-300
-300
-300
-300
-300
-300
-300
100
86.043
72.7567
60.7156
50.3244
41.783
35.0939
30.1019
26.5531
24.1558
22.6313
21.7495
21.3497
21.3497
21.7495
22.6313
24.1558
26.5531
30.1019
35.0939
41.783
50.3244
60.7156
72.7567
86.043
100
-300
-300
-300
-300
-300
-300
-300
-300
-300
-300
-300
-300
-300
-300
100
97.5349
95.1775
93.0156
91.1005
89.4344
87.9596
86.5392
84.9015
82.4647
77.7573
66.3631
55.5922
46.6773
39.761
34.8012
31.7385
30.5383
31.213
33.832
38.519
45.4399
54.795
66.8348
81.8779
100
-300
-300
-300
-300
-300
-300
-300
-300
-300
-300
100
86.043
72.7567
60.7156
50.3244
41.783
35.0939
30.1019
26.553
24.1557
22.6312
21.7495
21.3497
21.3497
21.7495
22.6312
24.1557
26.553
30.1019
35.0939
41.783
50.3244
60.7156
72.7567
86.043
100
-300
-300
-300
-300
-300
-300
-300
-300
-300
-300
-300
-300
-300
-300
100
100
100
100
100
100
100
100
100
100
100
77.484
62.4914
51.3288
42.9144
36.8416
32.9005
30.9628
30.9628
32.9005
36.8416
42.9144
51.3288
62.4914
77.484
100
100
100
100
100
100
100
100
100
100
100
100
86.043
72.7567
60.7156
50.3244
41.783
35.0939
30.1018
26.553
24.1557
22.6312
21.7495
21.3497
21.3497
21.7495
22.6312
24.1557
26.553
30.1018
35.0939
41.783
50.3244
60.7156
72.7567
86.043
100
-300
-300
-300
-300
-300
-300
-300
-300
-300
-300
-300
-300
-300
-300
-300
-300
-300
-300
-300
-300
-300
-300
-300
-300
100
81.8779
66.8348
54.795
45.4399
38.519
33.832
31.213
30.5383
31.7385
34.8012
39.761
46.6773
55.5922
66.3631
77.7572
82.4647
84.9015
86.5392
87.9596
89.4344
91.1005
93.0156
95.1775
97.5349
100
100
86.043
72.7567
60.7156
50.3244
41.783
35.0939
30.1018
26.553
24.1557
22.6312
21.7495
21.3497
21.3497
21.7495
22.6312
24.1557
26.553
30.1018
35.0939
41.783
50.3244
60.7156
72.7567
86.043
100
-300
-300
-300
-300
-300
-300
-300
-300
-300
-300
-300
-300
-300
-300
-300
-300
-300
-300
-300
-300
-300
-300
-300
-300
100
83.8698
69.3725
57.1212
47.2663
39.7677
34.4966
31.2881
29.9804
30.4427
32.5841
36.339
41.6257
48.2601
55.774
63.0416
67.9599
71.3608
74.0747
76.6556
79.4511
82.6647
86.3842
90.5948
95.1914
100
100
86.043
72.7567
60.7156
50.3244
41.783
35.0939
30.1018
26.553
24.1557
22.6312
21.7495
21.3497
21.3497
21.7495
22.6312
24.1557
26.553
30.1018
35.0939
41.783
50.3244
60.7156
72.7567
86.043
100
-300
-300
-300
-300
-300
-300
-300
-300
-300
-300
-300
-300
-300
-300
-300
-300
-300
-300
-300
-300
-300
-300
-300
-300
100
84.8686
70.8364
58.5985
48.4953
40.6221
34.9154
31.2219
29.3552
29.1353
30.4066
33.0289
36.8417
41.5999
46.8854
52.0378
56.3288
59.9091
63.203
66.6287
70.5145
75.0757
80.4023
86.4549
93.0728
100
100
86.043
72.7567
60.7156
50.3244
41.783
35.0939
30.1018
26.553
24.1557
22.6312
21.7495
21.3497
21.3497
21.7495
22.6312
24.1557
26.553
30.1018
35.0939
41.783
50.3244
60.7156
72.7567
86.043
100
-300
-300
-300
-300
-300
-300
-300
-300
-300
-300
-300
-300
-300
-300
-300
-300
-300
-300
-300
-300
-300
-300
-300
-300
100
85.4012
71.6795
59.5036
49.2772
41.164
35.1416
31.0658
28.7323
27.9248
28.4413
30.096
32.6983
36.0193
39.7607
43.5688
47.1662
50.613
54.1751
58.1779
62.9139
68.5861
75.2707
82.897
91.2505
100
100
86.043
72.7567
60.7156
50.3244
41.783
35.0939
30.1018
26.553
24.1557
22.6312
21.7495
21.3497
21.3497
21.7495
22.6312
24.1557
26.553
30.1018
35.0939
41.783
50.3243
60.7156
72.7567
86.043
100
-300
-300
-300
-300
-300
-300
-300
-300
-300
-300
-300
-300
-300
-300
-300
-300
-300
-300
-300
-300
-300
-300
-300
-300
100
85.6936
72.1627
60.0419
49.7511
41.4832
35.2366
30.8705
28.1671
26.8843
26.7895
27.6725
29.3386
31.5957
34.248
37.1193
40.123
43.3442
47.005
51.3874
56.7579
63.3031
71.0799
79.9861
89.758
100
100
86.043
72.7567
60.7156
50.3244
41.783
35.0939
30.1018
26.553
24.1557
22.6312
21.7495
21.3497
21.3497
21.7495
22.6312
24.1557
26.553
30.1018
35.0939
41.783
50.3243
60.7156
72.7567
86.043
100
-300
-300
-300
-300
-300
-300
-300
-300
-300
-300
-300
-300
-300
-300
-300
-300
-300
-300
-300
-300
-300
-300
-300
-300
100
85.8555
72.4363
60.3529
50.0252
41.6568
35.254
30.6757
27.6932
26.0467
25.4847
25.7851
26.7592
28.2499
30.1338
32.3387
34.8768
37.8738
41.5508
46.1762
52.0028
59.204
67.8189
77.7171
88.5936
100
100
86.043
72.7567
60.7156
50.3244
41.783
35.0939
30.1018
26.553
24.1557
22.6312
21.7495
21.3497
21.3497
21.7495
22.6312
24.1557
26.553
30.1018
35.0938
41.783
50.3243
60.7156
72.7567
86.043
100
-300
-300
-300
-300
-300
-300
-300
-300
-300
-300
-300
-300
-300
-300
-300
-300
-300
-300
-300
-300
-300
-300
-300
-300
100
85.9444
72.5883
60.5269
50.1764
41.7424
35.2335
30.5057
27.3222
25.4112
24.51
24.3912
24.8741
25.8286
27.179
28.9152
31.1081
33.9172
37.5762
42.3534
48.4964
56.17
65.3991
76.0306
87.7273
100
100
86.043
72.7567
60.7156
50.3244
41.783
35.0939
30.1018
26.553
24.1557
22.6312
21.7495
21.3497
21.3497
21.7495
22.6312
24.1557
26.553
30.1018
35.0938
41.7829
50.3242
60.7155
72.7566
86.0429
100
-300
-300
-300
-300
-300
-300
-300
-300
-300
-300
-300
-300
-300
-300
-300
-300
-300
-300
-300
-300
-300
-300
-300
-300
100
85.9924
72.6707
60.621
50.2555
41.7793
35.2001
30.371
27.0491
24.9549
23.8188
23.4115
23.5593
24.1504
25.14
26.5557
28.5042
31.1707
34.802
39.6715
46.0263
54.0261
63.6854
74.8345
87.1125
100
100
86.043
72.7567
60.7156
50.3244
41.783
35.0939
30.1018
26.553
24.1557
22.6312
21.7495
21.3497
21.3496
21.7495
22.6312
24.1556
26.5529
30.1016
35.0936
41.7827
50.324
60.7153
72.7565
86.0428
100
-300
-300
-300
-300
-300
-300
-300
-300
-300
-300
-300
-300
-300
-300
-300
-300
-300
-300
-300
-300
-300
-300
-300
-300
100
86.0177
72.714
60.6698
50.2944
41.7915
35.1673
30.2722
26.8591
24.6436
23.3522
22.7547
22.6826
23.0362
23.7897
24.9935
26.7769
29.3422
32.9475
37.8717
44.3631
52.5787
62.5264
74.0246
86.6959
100
100
86.043
72.7567
60.7156
50.3244
41.783
35.0939
30.1018
26.553
24.1557
22.6312
21.7495
21.3496
21.3496
21.7494
22.631
24.1554
26.5526
30.1013
35.0932
41.7823
50.3236
60.7149
72.7562
86.0427
100
-300
-300
-300
-300
-300
-300
-300
-300
-300
-300
-300
-300
-300
-300
-300
-300
-300
-300
-300
-300
-300
-300
-300
-300
100
86.0305
72.7359
60.694
50.3121
41.7927
35.1407
30.2043
26.7338
24.4415
23.0516
22.334
22.1233
22.3275
22.9319
24.001
25.6775
28.1752
31.7602
36.7158
43.292
51.6447
61.7772
73.5006
86.4262
100
100
86.043
72.7567
60.7156
50.3244
41.783
35.0939
30.1018
26.553
24.1557
22.6312
21.7495
21.3496
21.3495
21.7492
22.6308
24.1551
26.5521
30.1006
35.0924
41.7813
50.3226
60.714
72.7554
86.0423
100
-300
-300
-300
-300
-300
-300
-300
-300
-300
-300
-300
-300
-300
-300
-300
-300
-300
-300
-300
-300
-300
-300
-300
-300
100
86.0366
72.7461
60.7048
50.3188
41.7896
35.1211
30.16
26.6548
24.3161
22.8666
22.0763
21.7816
21.8953
22.4094
23.3962
25.0065
27.4613
31.0319
36.005
42.632
51.068
61.3141
73.1764
86.2593
100
100
86.043
72.7567
60.7156
50.3244
41.783
35.0939
30.1018
26.553
24.1557
22.6312
21.7494
21.3495
21.3493
21.7489
22.6303
24.1543
26.551
30.0991
35.0905
41.7792
50.3204
60.7119
72.7539
86.0414
100
-300
-300
-300
-300
-300
-300
-300
-300
-300
-300
-300
-300
-300
-300
-300
-300
-300
-300
-300
-300
-300
-300
-300
-300
100
86.0389
72.7497
60.7081
50.3195
41.7848
35.107
30.1319
26.6069
24.2414
22.7574
21.9249
21.5816
21.6427
22.104
23.0425
24.6137
27.0426
30.6039
35.5864
42.2425
50.7273
61.0401
72.9844
86.1604
100
100
86.043
72.7567
60.7156
50.3244
41.783
35.0939
30.1018
26.553
24.1557
22.6311
21.7493
21.3493
21.3489
21.7483
22.6292
24.1527
26.5487
30.096
35.0867
41.7747
50.3157
60.7076
72.7505
86.0396
100
-300
-300
-300
-300
-300
-300
-300
-300
-300
-300
-300
-300
-300
-300
-300
-300
-300
-300
-300
-300
-300
-300
-300
-300
100
86.0384
72.7487
60.7061
50.3158
41.7781
35.0956
30.1134
26.5779
24.198
22.6952
21.8394
21.4691
21.501
21.9328
22.8441
24.3931
26.8071
30.3627
35.3501
42.0223
50.5344
60.8849
72.8755
86.1043
100
100
86.043
72.7567
60.7156
50.3244
41.783
35.0939
30.1018
26.553
24.1556
22.631
21.7491
21.3488
21.3482
21.747
22.6272
24.1495
26.5441
30.0898
35.0788
41.7656
50.3061
60.6986
72.7435
86.0357
100
-300
-300
-300
-300
-300
-300
-300
-300
-300
-300
-300
-300
-300
-300
-300
-300
-300
-300
-300
-300
-300
-300
-300
-300
100
86.0352
72.7428
60.6981
50.3064
41.7675
35.0835
30.0986
26.5588
24.1722
22.6601
21.7924
21.4081
21.4244
21.8405
22.7373
24.2741
26.68
30.2324
35.2222
41.903
50.4298
60.8006
72.8164
86.0738
100
100
86.043
72.7567
60.7156
50.3243
41.783
35.0939
30.1018
26.5529
24.1555
22.6308
21.7486
21.3481
21.3468
21.7445
22.6232
24.1434
26.5353
30.0778
35.0636
41.7478
50.2872
60.6809
72.7296
86.028
100
-300
-300
-300
-300
-300
-300
-300
-300
-300
-300
-300
-300
-300
-300
-300
-300
-300
-300
-300
-300
-300
-300
-300
-300
100
86.0278
72.7293
60.6807
50.2874
41.7488
35.0659
30.0821
26.5424
24.1543
22.639
21.7664
21.3755
21.3843
21.7926
22.6819
24.2125
26.6141
30.1647
35.1558
41.8409
50.3753
60.7567
72.7856
86.0579
100
100
86.043
72.7567
60.7156
50.3243
41.783
35.0939
30.1018
26.5529
24.1553
22.6304
21.7479
21.3466
21.3442
21.7401
22.616
24.1322
26.5189
30.0554
35.0349
41.714
50.251
60.6467
72.7026
86.013
100
-300
-300
-300
-300
-300
-300
-300
-300
-300
-300
-300
-300
-300
-300
-300
-300
-300
-300
-300
-300
-300
-300
-300
-300
100
86.013
72.7024
60.6466
50.2512
41.7145
35.036
30.0574
26.5222
24.1373
22.6233
21.7502
21.3575
21.3634
21.7682
22.6541
24.1818
26.5812
30.131
35.1226
41.81
50.3481
60.7347
72.7702
86.0499
100
100
86.043
72.7567
60.7156
50.3243
41.783
35.0938
30.1017
26.5527
24.155
22.6298
21.7466
21.3442
21.3398
21.7325
22.6034
24.1125
26.4899
30.0152
34.9831
41.6523
50.1842
60.5829
72.6517
85.9847
100
-300
-300
-300
-300
-300
-300
-300
-300
-300
-300
-300
-300
-300
-300
-300
-300
-300
-300
-300
-300
-300
-300
-300
-300
100
85.9846
72.6517
60.5828
50.1843
41.6525
34.9836
30.0161
26.4914
24.1148
22.6066
21.737
21.3457
21.3517
21.7557
22.6403
24.1668
26.5654
30.1148
35.1067
41.7951
50.335
60.7242
72.7627
86.0461
100
100
86.043
72.7567
60.7156
50.3243
41.783
35.0938
30.1016
26.5525
24.1545
22.6287
21.7445
21.3402
21.3325
21.7198
22.5823
24.0793
26.4404
29.946
34.8927
41.5433
50.0647
60.4672
72.5584
85.9322
100
-300
-300
-300
-300
-300
-300
-300
-300
-300
-300
-300
-300
-300
-300
-300
-300
-300
-300
-300
-300
-300
-300
-300
-300
100
85.9322
72.5584
60.4672
50.0648
41.5434
34.8929
29.9464
26.4411
24.0803
22.5837
21.7217
21.3351
21.3434
21.7484
22.6333
24.1596
26.558
30.1072
35.0994
41.7882
50.3289
60.7193
72.7593
86.0443
100
100
86.043
72.7567
60.7156
50.3243
41.7829
35.0937
30.1014
26.5521
24.1538
22.6271
21.7413
21.334
21.321
21.6996
22.5485
24.0256
26.3597
29.8316
34.7412
41.3575
49.8577
60.2632
72.3914
85.8371
100
-300
-300
-300
-300
-300
-300
-300
-300
-300
-300
-300
-300
-300
-300
-300
-300
-300
-300
-300
-300
-300
-300
-300
-300
100
85.8371
72.3914
60.2632
49.8577
41.3576
34.7413
29.8318
26.36
24.0261
22.5491
21.7004
21.3221
21.3353
21.7429
22.629
24.1559
26.5544
30.1038
35.096
41.7851
50.3262
60.7171
72.7578
86.0435
100
100
86.043
72.7567
60.7156
50.3243
41.7829
35.0936
30.1012
26.5516
24.1526
22.6247
21.7365
21.3247
21.3038
21.6691
22.497
23.9428
26.2336
29.6503
34.4969
41.0524
49.51
59.9128
72.098
85.667
100
-300
-300
-300
-300
-300
-300
-300
-300
-300
-300
-300
-300
-300
-300
-300
-300
-300
-300
-300
-300
-300
-300
-300
-300
100
85.667
72.098
59.9128
49.51
41.0524
34.497
29.6504
26.2337
23.943
22.4972
21.6694
21.3042
21.3252
21.7371
22.6255
24.1535
26.5525
30.1022
35.0946
41.7838
50.3251
60.7162
72.7571
86.0432
100
100
86.043
72.7567
60.7156
50.3243
41.7829
35.0935
30.1009
26.5509
24.151
22.6214
21.7297
21.3115
21.2791
21.6251
22.422
23.821
26.0455
29.3754
34.1192
40.5692
48.9443
59.3249
71.5895
85.3639
100
-300
-300
-300
-300
-300
-300
-300
-300
-300
-300
-300
-300
-300
-300
-300
-300
-300
-300
-300
-300
-300
-300
-300
-300
100
85.3639
71.5895
59.3249
48.9443
40.5692
34.1192
29.3755
26.0455
23.8211
22.4221
21.6252
21.2793
21.3117
21.7299
22.6217
24.1514
26.5512
30.1013
35.0939
41.7832
50.3246
60.7158
72.7569
86.0431
100
100
86.043
72.7567
60.7156
50.3243
41.7828
35.0933
30.1005
26.5499
24.1489
22.6169
21.7206
21.2937
21.2457
21.565
22.3185
23.6507
25.7785
28.978
33.5606
39.8345
48.0539
58.3602
70.715
84.8174
100
-300
-300
-300
-300
-300
-300
-300
-300
-300
-300
-300
-300
-300
-300
-300
-300
-300
-300
-300
-300
-300
-300
-300
-300
100
84.8174
70.715
58.3602
48.0539
39.8345
33.5606
28.978
25.7785
23.6507
22.3185
21.565
21.2458
21.2938
21.7207
22.617
24.1491
26.5501
30.1006
35.0934
41.7829
50.3244
60.7157
72.7568
86.043
100
100
86.043
72.7567
60.7156
50.3242
41.7827
35.0931
30.1
26.5487
24.1463
22.6113
21.7091
21.271
21.2028
21.487
22.1829
23.4249
25.419
28.4325
32.7744
38.7661
46.7032
56.8141
69.2119
83.7991
100
-300
-300
-300
-300
-300
-300
-300
-300
-300
-300
-300
-300
-300
-300
-300
-300
-300
-300
-300
-300
-300
-300
-300
-300
100
83.7991
69.2119
56.8141
46.7032
38.7661
32.7744
28.4325
25.419
23.4249
22.1829
21.4871
21.2028
21.271
21.7091
22.6113
24.1463
26.5488
30.1
35.0931
41.7827
50.3243
60.7156
72.7567
86.043
100
100
86.043
72.7567
60.7155
50.3242
41.7826
35.0928
30.0993
26.5473
24.1431
22.6046
21.6952
21.2435
21.1506
21.3916
22.0152
23.1423
24.9622
27.7255
31.7287
37.2937
44.7465
54.4093
66.6225
81.7747
100
-300
-300
-300
-300
-300
-300
-300
-300
-300
-300
-300
-300
-300
-300
-300
-300
-300
-300
-300
-300
-300
-300
-300
-300
100
81.7747
66.6225
54.4093
44.7465
37.2937
31.7287
27.7255
24.9622
23.1423
22.0152
21.3916
21.1506
21.2435
21.6952
22.6046
24.1432
26.5473
30.0994
35.0929
41.7826
50.3242
60.7156
72.7567
86.043
100
100
86.043
72.7567
60.7155
50.3241
41.7825
35.0926
30.0987
26.5457
24.1396
22.5969
21.6795
21.2122
21.0906
21.2812
21.8198
22.8095
24.4171
26.8667
30.4271
35.3959
42.088
50.8538
62.204
77.3102
100
100
100
100
100
100
100
100
100
100
100
100
100
100
100
100
100
100
100
100
100
100
100
100
100
100
77.3102
62.204
50.8538
42.088
35.3959
30.4271
26.8667
24.4171
22.8095
21.8198
21.2812
21.0906
21.2122
21.6795
22.5969
24.1396
26.5457
30.0987
35.0926
41.7825
50.3241
60.7155
72.7567
86.043
100
100
86.043
72.7567
60.7155
50.3241
41.7824
35.0923
30.0979
26.544
24.1358
22.5888
21.6626
21.1785
21.0258
21.1612
21.6058
22.4421
23.8092
25.8959
28.9284
33.1511
38.8048
46.1019
55.1893
65.9918
77.3102
81.7747
83.7991
84.8174
85.3639
85.667
85.8371
85.9322
85.9846
86.0129
86.0277
86.035
86.038
86.038
86.035
86.0277
86.0129
85.9846
85.9322
85.8371
85.667
85.3639
84.8174
83.7991
81.7747
77.3102
65.9918
55.1893
46.1019
38.8048
33.1511
28.9284
25.8959
23.8092
22.4421
21.6058
21.1612
21.0258
21.1785
21.6626
22.5888
24.1358
26.544
30.0979
35.0923
41.7824
50.3241
60.7155
72.7567
86.043
100
100
86.043
72.7567
60.7155
50.3241
41.7823
35.092
30.0972
26.5424
24.132
22.5806
21.6455
21.1443
20.9598
21.0385
21.3861
22.0627
23.1774
24.8796
27.3453
30.7556
35.2643
40.9495
47.7301
55.1893
62.204
66.6225
69.2119
70.715
71.5895
72.098
72.3914
72.5584
72.6516
72.7023
72.729
72.7422
72.7476
72.7476
72.7422
72.729
72.7023
72.6516
72.5584
72.3914
72.098
71.5895
70.715
69.2119
66.6225
62.204
55.1893
47.7301
40.9495
35.2643
30.7556
27.3453
24.8796
23.1774
22.0627
21.3861
21.0385
20.9598
21.1443
21.6455
22.5806
24.132
26.5424
30.0972
35.092
41.7823
50.3241
60.7155
72.7567
86.043
100
100
86.043
72.7567
60.7156
50.3241
41.7823
35.0918
30.0966
26.5409
24.1285
22.5729
21.6293
21.1116
20.8965
20.9205
21.1743
21.6962
22.5655
23.8931
25.8073
28.4316
31.8526
36.0736
40.9495
46.1019
50.8538
54.4093
56.8141
58.3602
59.3249
59.9128
60.2632
60.4671
60.5827
60.6464
60.6802
60.697
60.7039
60.7039
60.697
60.6802
60.6464
60.5827
60.4671
60.2632
59.9128
59.3249
58.3602
56.8141
54.4093
50.8538
46.1019
40.9495
36.0736
31.8526
28.4316
25.8073
23.8931
22.5655
21.6962
21.1743
20.9205
20.8965
21.1116
21.6293
22.5729
24.1285
26.5409
30.0966
35.0918
41.7823
50.3241
60.7156
72.7567
86.043
100
100
86.043
72.7568
60.7157
50.3243
41.7824
35.0918
30.0963
26.5397
24.1256
22.5661
21.6149
21.0823
20.8395
20.814
20.9828
21.3644
22.0117
23.0016
24.4221
26.3528
28.838
31.8526
35.2643
38.8048
42.088
44.7465
46.7032
48.0539
48.9443
49.51
49.8576
50.0647
50.1841
50.2507
50.2864
50.3043
50.3117
50.3117
50.3043
50.2864
50.2507
50.1841
50.0647
49.8576
49.51
48.9443
48.0539
46.7032
44.7465
42.088
38.8048
35.2643
31.8526
28.838
26.3528
24.4221
23.0016
22.0117
21.3644
20.9828
20.814
20.8395
21.0823
21.6149
22.5661
24.1256
26.5397
30.0963
35.0918
41.7824
50.3243
60.7157
72.7568
86.043
100
100
86.0432
72.7571
60.7161
50.3248
41.7829
35.0923
30.0965
26.5392
24.1235
22.5609
21.6031
21.0579
20.7915
20.7238
20.82
21.0825
21.5418
22.2475
23.2566
24.6181
26.3528
28.4316
30.7556
33.1511
35.3959
37.2937
38.7661
39.8345
40.5692
41.0523
41.3575
41.5432
41.6521
41.7137
41.7471
41.7639
41.7709
41.7709
41.7639
41.7471
41.7137
41.6521
41.5432
41.3575
41.0523
40.5692
39.8345
38.7661
37.2937
35.3959
33.1511
30.7556
28.4316
26.3528
24.6181
23.2566
22.2475
21.5418
21.0825
20.82
20.7238
20.7915
21.0579
21.6031
22.5609
24.1235
26.5392
30.0965
35.0923
41.7829
50.3248
60.7161
72.7571
86.0432
100
100
86.0435
72.7578
60.7171
50.326
41.7843
35.0937
30.0978
26.5401
24.1232
22.558
21.5949
21.0395
20.7541
20.6524
20.6905
20.8576
21.1671
21.648
22.335
23.2566
24.4221
25.8073
27.3453
28.9284
30.4271
31.7287
32.7744
33.5606
34.1192
34.4969
34.7412
34.8927
34.983
35.0347
35.0629
35.0773
35.0833
35.0833
35.0773
35.0629
35.0347
34.983
34.8927
34.7412
34.4969
34.1192
33.5606
32.7744
31.7287
30.4271
28.9284
27.3453
25.8073
24.4221
23.2566
22.335
21.648
21.1671
20.8576
20.6905
20.6524
20.7541
21.0395
21.5949
22.558
24.1232
26.5401
30.0978
35.0937
41.7843
50.326
60.7171
72.7578
86.0435
100
100
86.0444
72.7594
60.7194
50.3289
41.7876
35.0974
30.1016
26.5436
24.1259
22.5588
21.5917
21.0285
20.7286
20.6011
20.5951
20.6901
20.8869
21.1998
21.648
22.2475
23.0016
23.8931
24.8796
25.8959
26.8667
27.7255
28.4325
28.978
29.3754
29.6503
29.8316
29.946
30.0151
30.0552
30.0773
30.0886
30.0934
30.0934
30.0886
30.0773
30.0552
30.0151
29.946