# vtk DataFile Version 2.0
LBE two cylinders
ASCII
DATASET STRUCTURED_POINTS
DIMENSIONS 76 76 1
ASPECT_RATIO 1 1 1
ORIGIN 0 0 0
POINT_DATA 5776
SCALARS temp double 1
LOOKUP_TABLE default
100
100
100
100
100
100
100
100
100
100
100
100
100
100
100
100
100
100
100
100
100
100
100
100
100
100
-300
-300
-300
-300
-300
-300
-300
-300
-300
-300
-300
-300
-300
-300
100
100
100
100
100
100
100
100
100
100
100
100
100
100
100
100
100
100
100
100
100
100
100
100
100
100
-300
-300
-300
-300
-300
-300
-300
-300
-300
-300
100
98.6057
97.2499
95.9681
94.7902
93.7384
92.8267
92.0611
91.4408
90.96
90.6105
90.3835
90.2719
90.2719
90.3835
90.6105
90.96
91.4408
92.0611
92.8267
93.7384
94.7902
95.9681
97.2499
98.6057
100
-300
-300
-300
-300
-300
-300
-300
-300
-300
-300
-300
-300
-300
-300
100
98.6062
97.2509
95.9696
94.7921
93.7406
92.8291
92.0637
91.4434
90.9626
90.6129
90.3856
90.2738
90.2736
90.3849
90.6117
90.961
91.4415
92.0616
92.8271
93.7386
94.7904
95.9682
97.2499
98.6057
100
-300
-300
-300
-300
-300
-300
-300
-300
-300
-300
100
97.2496
94.5752
92.0469
89.7234
87.6486
85.8503
84.3402
83.1166
82.1683
81.4788
81.031
80.8109
80.8109
81.031
81.4788
82.1683
83.1166
84.3402
85.8503
87.6486
89.7234
92.0469
94.5752
97.2496
100
-300
-300
-300
-300
-300
-300
-300
-300
-300
-300
-300
-300
-300
-300
100
97.2509
94.5778
92.0506
89.728
87.654
85.8562
84.3464
83.1228
82.1744
81.4846
81.0362
80.8156
80.815
81.0344
81.4816
82.1705
83.1183
84.3415
85.8513
87.6493
89.7238
92.0472
94.5754
97.2497
100
-300
-300
-300
-300
-300
-300
-300
-300
-300
-300
100
95.9669
92.0453
88.3379
84.9308
81.8885
79.2516
77.0372
75.2431
73.8526
72.8416
72.1849
71.8622
71.8622
72.1849
72.8416
73.8526
75.2431
77.0372
79.2516
81.8885
84.9308
88.3379
92.0453
95.9669
100
-300
-300
-300
-300
-300
-300
-300
-300
-300
-300
-300
-300
-300
-300
100
95.9695
92.0504
88.3452
84.94
81.8992
79.2633
77.0495
75.2555
73.8647
72.853
72.1954
71.8716
71.8703
72.1917
72.8472
73.857
75.2465
77.0398
79.2534
81.8898
84.9317
88.3384
92.0456
95.967
100
-300
-300
-300
-300
-300
-300
-300
-300
-300
-300
100
94.7869
89.7179
84.9258
80.5218
76.5895
73.1811
70.3189
67.9999
66.2026
64.8959
64.0471
63.63
63.63
64.0471
64.8959
66.2026
67.9999
70.3189
73.1811
76.5895
80.5218
84.9258
89.7179
94.7869
100
-300
-300
-300
-300
-300
-300
-300
-300
-300
-300
-300
-300
-300
-300
100
94.7917
89.7274
84.9394
80.5391
76.6095
73.2031
70.342
68.0231
66.2253
64.9173
64.0668
63.6476
63.6453
64.0599
64.9064
66.211
68.0063
70.3237
73.1846
76.5919
80.5234
84.9268
89.7185
94.7871
100
-300
-300
-300
-300
-300
-300
-300
-300
-300
-300
100
93.731
87.6353
81.8726
76.5767
71.8479
67.7492
64.3074
61.5188
59.3576
57.7863
56.7657
56.2642
56.2642
56.7657
57.7863
59.3576
61.5188
64.3074
67.7492
71.8479
76.5767
81.8726
87.6353
93.731
100
-300
-300
-300
-300
-300
-300
-300
-300
-300
-300
-300
-300
-300
-300
100
93.7398
87.6525
81.8973
76.6079
71.8843
67.7891
64.3493
61.561
59.3988
57.8252
56.8014
56.2961
56.2918
56.789
57.8054
59.3728
61.5305
64.3161
67.7555
71.8523
76.5795
81.8743
87.6363
93.7314
100
-300
-300
-300
-300
-300
-300
-300
-300
-300
-300
100
92.8119
85.8226
79.215
73.1428
67.7209
63.0215
59.0752
55.8779
53.4
51.5984
50.4283
49.8533
49.8533
50.4283
51.5984
53.4
55.8779
59.0752
63.0215
67.7209
73.1428
79.215
85.8226
92.8119
100
-300
-300
-300
-300
-300
-300
-300
-300
-300
-300
-300
-300
-300
-300
100
92.8275
85.853
79.2589
73.1981
67.7852
63.092
59.1492
55.9527
53.473
51.6674
50.4916
49.9098
49.9023
50.4695
51.6322
53.4268
55.8985
59.0905
63.0324
67.7285
73.1478
79.2181
85.8243
92.8127
100
-300
-300
-300
-300
-300
-300
-300
-300
-300
-300
100
92.0337
84.2877
76.9648
70.2353
64.2265
59.0183
54.645
51.1017
48.3557
46.3592
45.0625
44.4253
44.4253
45.0625
46.3592
48.3557
51.1017
54.645
59.0183
64.2265
70.2353
76.9648
84.2877
92.0337
100
-300
-300
-300
-300
-300
-300
-300
-300
-300
-300
-300
-300
-300
-300
100
92.0606
84.3402
77.0405
70.3307
64.3375
59.1403
54.773
51.2311
48.482
46.4787
45.1722
44.5231
44.5101
45.1339
46.4176
48.402
51.1373
54.6713
59.0371
64.2393
70.2436
76.9699
84.2905
92.0349
100
-300
-300
-300
-300
-300
-300
-300
-300
-300
-300
100
91.3926
83.0232
75.111
67.84
61.3477
55.7206
50.9955
47.1673
44.2004
42.0434
40.6424
39.954
39.954
40.6424
42.0434
44.2004
47.1673
50.9955
55.7206
61.3477
67.84
75.111
83.0232
91.3926
100
-300
-300
-300
-300
-300
-300
-300
-300
-300
-300
-300
-300
-300
-300
100
91.4379
83.1118
75.2387
68.0012
61.5353
55.9267
51.212
47.386
44.4141
42.2456
40.8281
40.1196
40.0975
40.7632
42.1421
44.2785
47.2271
51.0397
55.752
61.3691
67.8537
75.1194
83.0278
91.3946
100
-300
-300
-300
-300
-300
-300
-300
-300
-300
-300
100
90.8786
82.0096
73.625
65.92
59.0402
53.0773
48.0703
44.0136
40.8698
38.5842
37.0997
36.3702
36.3702
37.0997
38.5842
40.8698
44.0136
48.0703
53.0773
59.0402
65.92
73.625
82.0096
90.8786
100
-300
-300
-300
-300
-300
-300
-300
-300
-300
-300
-300
-300
-300
-300
100
90.9534
82.1556
73.8357
66.1859
59.3499
53.4177
48.4279
44.3753
41.2232
38.9187
37.4069
36.6442
36.6076
37.2993
38.747
40.9986
44.112
48.1426
53.1284
59.0747
65.942
73.6382
82.0167
90.8817
100
-300
-300
-300
-300
-300
-300
-300
-300
-300
-300
100
90.4777
81.2189
72.4659
64.4222
57.2402
51.0154
45.7884
41.5537
38.2719
35.8859
34.3363
33.5748
33.5748
34.3363
35.8859
38.2719
41.5537
45.7884
51.0154
57.2402
64.4222
72.4659
81.2189
90.4777
100
-300
-300
-300
-300
-300
-300
-300
-300
-300
-300
-300
-300
-300
-300
100
90.5982
81.4542
72.8055
64.8511
57.7399
51.565
46.3662
42.1382
38.8433
36.427
34.8333
34.018
33.9585
34.6587
36.1486
38.4791
41.7115
45.9041
51.0965
57.2944
64.4564
72.4859
81.2295
90.4822
100
-300
-300
-300
-300
-300
-300
-300
-300
-300
-300
100
90.1733
80.6185
71.5857
63.285
55.8735
49.4499
44.056
39.6861
36.2996
33.8375
32.2384
31.4526
31.4526
32.2384
33.8375
36.2996
39.6861
44.056
49.4499
55.8735
63.285
71.5857
80.6185
90.1733
100
-300
-300
-300
-300
-300
-300
-300
-300
-300
-300
-300
-300
-300
-300
100
90.363
80.9892
72.1209
63.9612
56.6617
50.3174
44.9685
40.6097
37.2029
34.6931
33.0244
32.1534
32.059
32.7473
34.2515
36.6253
39.9333
44.2363
49.5754
55.9564
63.3364
71.6152
80.6337
90.1796
100
-300
-300
-300
-300
-300
-300
-300
-300
-300
-300
100
89.9483
80.1748
70.9352
62.4445
54.8634
48.2928
42.7756
38.3058
34.8419
32.3236
30.6879
29.8843
29.8843
30.6879
32.3236
34.8419
38.3058
42.7756
48.2928
54.8634
62.4445
70.9352
80.1748
89.9483
100
-300
-300
-300
-300
-300
-300
-300
-300
-300
-300
-300
-300
-300
-300
100
90.2402
80.7455
71.7595
63.4865
56.0788
49.6315
44.1848
39.733
36.2384
33.6467
31.9034
30.9675
30.8209
31.4731
32.961
35.342
38.6838
43.0495
48.4818
54.9865
62.5192
70.9768
80.1954
89.9565
100
-300
-300
-300
-300
-300
-300
-300
-300
-300
-300
100
89.7864
79.8554
70.467
61.8397
54.1365
47.4602
41.8543
37.3126
33.793
31.2342
29.5723
28.7557
28.7557
29.5723
31.2342
33.793
37.3126
41.8543
47.4602
54.1365
61.8397
70.467
79.8554
89.7864
100
-300
-300
-300
-300
-300
-300
-300
-300
-300
-300
-300
-300
-300
-300
100
90.2255
80.7143
71.7081
63.4095
55.9689
49.48
43.9822
39.4694
35.9046
33.2354
31.4106
30.3932
30.1701
30.7562
32.1931
34.5428
37.8765
42.2599
47.737
54.3137
61.9443
70.5228
79.8814
89.796
100
-300
-300
-300
-300
-300
-300
-300
-300
-300
-300
100
89.6729
79.6316
70.139
61.4158
53.6271
46.8767
41.2086
36.6166
33.058
30.4709
28.7906
27.965
27.965
28.7906
30.4709
33.058
36.6166
41.2086
46.8767
53.6271
61.4158
70.139
79.6316
89.6729
100
-300
-300
-300
-300
-300
-300
-300
-300
-300
-300
-300
-300
-300
-300
100
90.3187
80.8951
71.9657
63.728
56.3284
49.8573
44.3517
39.8051
36.1815
33.432
31.5102
30.3859
30.0535
30.5354
31.8802
34.1557
37.4373
41.7938
47.2706
53.8737
61.5561
70.2092
79.6611
89.6823
100
-300
-300
-300
-300
-300
-300
-300
-300
-300
-300
100
89.5955
79.4788
69.915
61.1264
53.2794
46.4784
40.7679
36.1415
32.5564
29.9499
28.2571
27.4253
27.4253
28.2571
29.9499
32.5564
36.1415
40.7679
46.4784
53.2794
61.1264
69.915
79.4788
89.5955
100
-300
-300
-300
-300
-300
-300
-300
-300
-300
-300
-300
-300
-300
-300
100
90.5239
81.296
72.5439
64.457
57.1744
50.781
45.3101
40.754
37.078
34.2376
32.194
30.9267
30.4412
30.7707
31.9736
34.1251
37.3065
41.5899
47.0223
53.6101
61.305
69.9957
79.5061
89.6008
100
-300
-300
-300
-300
-300
-300
-300
-300
-300
-300
100
89.544
79.3772
69.7661
60.934
53.0482
46.2136
40.4749
35.8256
32.2228
29.6035
27.9023
27.0664
27.0664
27.9023
29.6035
32.2228
35.8256
40.4749
46.2136
53.0482
60.934
69.7661
79.3772
89.544
100
-300
-300
-300
-300
-300
-300
-300
-300
-300
-300
-300
-300
-300
-300
100
90.849
81.9328
73.4661
65.6263
58.5425
52.291
46.8996
42.3576
38.6315
35.6822
33.4812
32.0222
31.3264
31.4426
32.4424
34.4114
37.4377
41.5977
46.9408
53.4734
61.1462
69.8453
79.3898
89.5377
100
-300
-300
-300
-300
-300
-300
-300
-300
-300
-300
100
89.5106
79.3114
69.6696
60.8093
52.8984
46.042
40.285
35.621
32.0067
29.379
27.6725
26.8339
26.8339
27.6725
29.379
32.0067
35.621
40.285
46.042
52.8984
60.8093
69.6696
79.3114
89.5106
100
-300
-300
-300
-300
-300
-300
-300
-300
-300
-300
-300
-300
-300
-300
100
91.3047
82.8266
74.7634
67.277
60.4826
54.4451
49.1832
44.6811
40.9047
37.8211
35.4153
33.7006
32.7212
32.5478
33.2699
34.9866
37.7946
41.7754
46.9808
53.4181
61.0371
69.7216
79.2854
89.4785
100
-300
-300
-300
-300
-300
-300
-300
-300
-300
-300
100
89.4895
79.2698
69.6086
60.7306
52.8038
45.9336
40.1651
35.4917
31.8702
29.2373
27.5273
26.6871
26.6871
27.5273
29.2373
31.8702
35.4917
40.1651
45.9336
52.8038
60.7306
69.6086
79.2698
89.4895
100
-300
-300
-300
-300
-300
-300
-300
-300
-300
-300
-300
-300
-300
-300
100
91.9021
83.9996
76.4696
69.4545
63.052
57.3115
52.2388
47.8083
43.9818
40.7313
38.0586
36.0056
34.6495
34.0919
34.4465
35.8289
38.3459
42.0845
47.0993
53.3989
60.9334
69.585
79.1629
89.4069
100
-300
-300
-300
-300
-300
-300
-300
-300
-300
-300
100
89.4765
79.2442
69.5711
60.6821
52.7455
45.8669
40.0912
35.4121
31.7862
29.15
27.438
26.5967
26.5967
27.438
29.15
31.7862
35.4121
40.0912
45.8669
52.7455
60.6821
69.5711
79.2442
89.4765
100
-300
-300
-300
-300
-300
-300
-300
-300
-300
-300
-300
-300
-300
-300
100
92.6505
85.4712
78.6147
72.2007
66.3059
60.9602
56.1507
51.8351
47.9631
44.5064
41.4866
38.988
37.1377
36.0806
35.9616
36.9153
39.0593
42.4853
47.2507
53.3661
60.7841
69.3881
78.9844
89.3015
100
-300
-300
-300
-300
-300
-300
-300
-300
-300
-300
100
89.4687
79.2288
69.5485
60.653
52.7105
45.8268
40.0469
35.3644
31.7357
29.0977
27.3843
26.5425
26.5425
27.3843
29.0977
31.7357
35.3644
40.0469
45.8268
52.7105
60.653
69.5485
79.2288
89.4687
100
-300
-300
-300
-300
-300
-300
-300
-300
-300
-300
-300
-300
-300
-300
100
93.5549
87.252
81.2169
75.5441
70.2868
65.4514
61.0005
56.864
52.9642
49.2568
45.7828
42.6962
40.2025
38.5073
37.7931
38.214
39.8953
42.9319
47.3824
53.261
60.5262
69.0683
78.697
89.1312
100
-300
-300
-300
-300
-300
-300
-300
-300
-300
-300
100
89.4642
79.2198
69.5353
60.6359
52.69
45.8034
40.021
35.3364
31.7062
29.067
27.3529
26.5107
26.5107
27.3529
29.067
31.7062
35.3364
40.021
45.8034
52.69
60.6359
69.5353
79.2198
89.4642
100
-300
-300
-300
-300
-300
-300
-300
-300
-300
-300
-300
-300
-300
-300
100
94.6133
89.3391
84.2749
79.4893
75.0115
70.8233
66.857
63.0009
59.1215
55.1194
51.0369
47.1627
43.8344
41.339
39.8972
39.6763
40.8028
43.3689
47.4326
53.0123
60.0784
68.539
78.2214
88.8458
100
-300
-300
-300
-300
-300
-300
-300
-300
-300
-300
100
89.4615
79.2147
69.5278
60.6262
52.6783
45.79
40.0061
35.3204
31.6893
29.0495
27.335
26.4925
26.4925
27.335
29.0495
31.6893
35.3204
40.0061
45.79
52.6783
60.6262
69.5278
79.2147
89.4615
100
-300
-300
-300
-300
-300
-300
-300
-300
-300
-300
-300
-300
-300
-300
100
95.8142
91.711
87.7601
84.0062
80.4575
77.0748
73.7611
70.3511
66.612
62.2943
57.3442
52.3823
47.9738
44.4979
42.1968
41.232
41.7168
43.7321
47.3306
52.536
59.3371
67.6773
77.4313
88.3555
100
-300
-300
-300
-300
-300
-300
-300
-300
-300
-300
100
89.4601
79.2118
69.5236
60.6207
52.6718
45.7825
39.9979
35.3115
31.6799
29.0397
27.325
26.4824
26.4824
27.325
29.0397
31.6799
35.3115
39.9979
45.7825
52.6718
60.6207
69.5236
79.2118
89.4601
100
-300
-300
-300
-300
-300
-300
-300
-300
-300
-300
-300
-300
-300
-300
100
97.1355
94.3246
91.6116
89.0209
86.5476
84.1441
81.7
79.0064
75.6937
71.1633
64.7958
58.2605
52.4706
47.8409
44.5739
42.7873
42.5608
43.9524
47.0036
51.7408
58.1768
66.3102
76.115
87.4803
100
-300
-300
-300
-300
-300
-300
-300
-300
-300
-300
100
89.4593
79.2103
69.5213
60.6178
52.6682
45.7784
39.9934
35.3067
31.6748
29.0344
27.3195
26.4769
26.4769
27.3195
29.0344
31.6748
35.3067
39.9934
45.7784
52.6682
60.6178
69.5213
79.2102
89.4593
100
-300
-300
-300
-300
-300
-300
-300
-300
-300
-300
-300
-300
-300
-300
100
98.5445
97.1154
95.7336
94.4093
93.1355
91.8776
90.5534
88.9824
86.7401
82.694
73.3692
64.4857
57.0251
51.1422
46.8698
44.2321
43.256
43.9674
46.3895
50.5447
56.464
64.2087
73.9108
85.8061
100
-300
-300
-300
-300
-300
-300
-300
-300
-300
-300
100
89.4589
79.2094
69.5201
60.6162
52.6664
45.7763
39.991
35.3041
31.6721
29.0316
27.3167
26.474
26.474
27.3166
29.0315
31.672
35.3041
39.991
45.7762
52.6663
60.6162
69.5201
79.2094
89.4589
100
-300
-300
-300
-300
-300
-300
-300
-300
-300
-300
-300
-300
-300
-300
100
100
100
100
100
100
100
100
100
100
100
82.2309
70.2374
61.1325
54.1055
48.9068
45.4579
43.7359
43.7357
45.4573
48.9059
54.1042
61.1309
70.2357
82.2294
100
100
100
100
100
100
100
100
100
100
100
100
89.4587
79.209
69.5194
60.6154
52.6654
45.7751
39.9897
35.3027
31.6706
29.0301
27.3151
26.4725
26.4725
27.3151
29.0301
31.6706
35.3027
39.9897
45.7751
52.6653
60.6154
69.5194
79.209
89.4586
100
-300
-300
-300
-300
-300
-300
-300
-300
-300
-300
-300
-300
-300
-300
-300
-300
-300
-300
-300
-300
-300
-300
-300
-300
100
85.806
73.9102
64.2076
56.4622
50.5422
46.3864
43.9638
43.252
44.2277
46.865
51.1372
57.0199
64.4805
73.3642
82.6895
86.736
88.9784
90.5498
91.8743
93.1326
94.4069
95.7317
97.1141
98.5439
100
100
89.4585
79.2088
69.5191
60.615
52.6649
45.7746
39.9891
35.3021
31.6699
29.0293
27.3144
26.4717
26.4717
27.3144
29.0293
31.6699
35.302
39.989
45.7745
52.6648
60.6149
69.5191
79.2087
89.4585
100
-300
-300
-300
-300
-300
-300
-300
-300
-300
-300
-300
-300
-300
-300
-300
-300
-300
-300
-300
-300
-300
-300
-300
-300
100
87.479
76.1122
66.306
58.1712
51.7341
46.9957
43.9436
42.5512
42.7771
44.5633
47.83
52.4596
58.2495
64.785
71.1529
75.6836
78.997
81.6912
84.1361
86.5407
89.0151
91.6071
94.3216
97.1339
100
100
89.4585
79.2087
69.519
60.6148
52.6646
45.7743
39.9888
35.3017
31.6696
29.029
27.314
26.4713
26.4713
27.3139
29.0289
31.6695
35.3016
39.9886
45.7741
52.6645
60.6146
69.5188
79.2086
89.4584
100
-300
-300
-300
-300
-300
-300
-300
-300
-300
-300
-300
-300
-300
-300
-300
-300
-300
-300
-300
-300
-300
-300
-300
-300
100
88.3525
77.4253
67.6685
59.3257
52.5223
47.3149
43.7146
41.6979
41.212
42.1761
44.4767
47.9523
52.3609
57.3231
62.2737
66.5923
70.3324
73.7437
77.0591
80.4438
83.9949
87.7513
91.7049
95.8111
100
100
89.4585
79.2086
69.5189
60.6147
52.6645
45.7742
39.9886
35.3016
31.6694
29.0288
27.3138
26.4711
26.471
27.3137
29.0286
31.6691
35.3013
39.9883
45.7738
52.6642
60.6143
69.5186
79.2084
89.4584
100
-300
-300
-300
-300
-300
-300
-300
-300
-300
-300
-300
-300
-300
-300
-300
-300
-300
-300
-300
-300
-300
-300
-300
-300
100
88.84
78.2101
68.5223
60.0569
52.9865
47.403
43.3363
40.7677
39.6393
39.8587
41.2996
43.7947
47.123
50.9977
55.0811
59.0847
62.9661
66.8247
70.794
74.9859
79.4681
84.2584
89.3279
94.6076
100
100
89.4585
79.2086
69.5189
60.6146
52.6645
45.7741
39.9886
35.3015
31.6693
29.0286
27.3136
26.4709
26.4708
27.3134
29.0283
31.6688
35.3009
39.9879
45.7734
52.6638
60.614
69.5183
79.2082
89.4583
100
-300
-300
-300
-300
-300
-300
-300
-300
-300
-300
-300
-300
-300
-300
-300
-300
-300
-300
-300
-300
-300
-300
-300
-300
100
89.1208
78.6764
69.0381
60.4872
53.2143
47.329
42.8729
39.8318
38.1471
37.7237
38.4364
40.1308
42.6245
45.7121
49.1878
52.8978
56.8011
60.9422
65.3987
70.2407
75.5058
81.1872
87.2318
93.5447
100
100
89.4584
79.2086
69.5188
60.6146
52.6644
45.774
39.9885
35.3014
31.6692
29.0285
27.3135
26.4707
26.4705
27.3131
29.0279
31.6683
35.3003
39.9873
45.7727
52.6631
60.6134
69.5178
79.2078
89.4581
100
-300
-300
-300
-300
-300
-300
-300
-300
-300
-300
-300
-300
-300
-300
-300
-300
-300
-300
-300
-300
-300
-300
-300
-300
100
89.2831
78.948
69.3348
60.7155
53.2838
47.1566
42.3814
38.9474
36.7975
35.8394
35.9557
37.0115
38.8619
41.362
44.3848
47.8461
51.7243
56.048
60.8673
66.2248
72.1332
78.5625
85.4356
92.6324
100
100
89.4584
79.2086
69.5188
60.6146
52.6644
45.774
39.9885
35.3013
31.6691
29.0283
27.3132
26.4703
26.4701
27.3125
29.0272
31.6674
35.2993
39.9862
45.7715
52.6619
60.6123
69.5169
79.2072
89.4577
100
-300
-300
-300
-300
-300
-300
-300
-300
-300
-300
-300
-300
-300
-300
-300
-300
-300
-300
-300
-300
-300
-300
-300
-300
100
89.3751
79.1003
69.4933
60.8152
53.2571
46.9373
41.9056
38.1535
35.6261
34.2364
33.8771
34.4325
35.7888
37.8445
40.5223
43.7807
47.6179
52.0622
57.1519
62.9126
69.3385
76.3798
83.9384
91.871
100
100
89.4584
79.2086
69.5188
60.6146
52.6644
45.774
39.9884
35.3012
31.6689
29.0281
27.3128
26.4698
26.4693
27.3115
29.0259
31.6659
35.2975
39.9842
45.7694
52.6598
60.6103
69.5152
79.206
89.4571
100
-300
-300
-300
-300
-300
-300
-300
-300
-300
-300
-300
-300
-300
-300
-300
-300
-300
-300
-300
-300
-300
-300
-300
-300
100
89.425
79.18
69.5672
60.8381
53.1795
46.7082
41.4746
37.4711
34.6458
32.9168
32.1868
32.3566
33.3365
35.0556
37.4702
40.567
44.3613
48.8866
54.177
60.2485
67.0822
74.6126
82.7238
91.2526
100
100
89.4584
79.2086
69.5188
60.6145
52.6643
45.7739
39.9882
35.301
31.6686
29.0276
27.3122
26.4688
26.4681
27.3098
29.0237
31.6633
35.2944
39.9807
45.7657
52.6561
60.6068
69.5123
79.2038
89.4559
100
-300
-300
-300
-300
-300
-300
-300
-300
-300
-300
-300
-300
-300
-300
-300
-300
-300
-300
-300
-300
-300
-300
-300
-300
100
89.4496
79.2164
69.5915
60.8191
53.0812
46.4929
41.1035
36.9064
33.8519
31.8627
30.8501
30.728
31.4246
32.891
35.1063
38.0772
41.8329
46.413
51.8513
58.1586
65.3069
73.2188
81.7642
90.7635
100
100
89.4584
79.2085
69.5188
60.6145
52.6642
45.7738
39.988
35.3007
31.6681
29.0268
27.311
26.4673
26.4659
27.3069
29.0201
31.6587
35.2891
39.9747
45.7593
52.6496
60.6008
69.5072
79.2001
89.454
100
-300
-300
-300
-300
-300
-300
-300
-300
-300
-300
-300
-300
-300
-300
-300
-300
-300
-300
-300
-300
-300
-300
-300
-300
100
89.4594
79.2273
69.5879
60.7794
52.9803
46.3032
40.7966
36.4541
33.2275
31.0437
29.8206
29.4818
29.9687
31.2479
33.3146
36.1897
39.9132
44.5303
50.0763
56.5592
63.9451
72.1477
81.0257
90.3868
100
100
89.4584
79.2085
69.5187
60.6144
52.6641
45.7736
39.9877
35.3001
31.6672
29.0256
27.3092
26.4647
26.4623
27.3022
29.014
31.6512
35.2802
39.9646
45.7485
52.6387
60.5906
69.4985
79.1938
89.4507
100
-300
-300
-300
-300
-300
-300
-300
-300
-300
-300
-300
-300
-300
-300
-300
-300
-300
-300
-300
-300
-300
-300
-300
-300
100
89.46
79.2232
69.5687
60.7309
52.8853
46.1424
40.5498
36.1009
32.7489
30.4233
29.047
28.5508
28.8856
30.0288
31.9867
34.7908
38.4886
43.1308
48.7541
55.3654
62.9267
71.3454
80.472
90.1042
100
100
89.4584
79.2085
69.5187
60.6143
52.6639
45.7732
39.9872
35.2993
31.6659
29.0236
27.3063
26.4605
26.4566
27.2945
29.0041
31.6389
35.2656
39.948
45.7307
52.6206
60.5736
69.484
79.1832
89.445
100
-300
-300
-300
-300
-300
-300
-300
-300
-300
-300
-300
-300
-300
-300
-300
-300
-300
-300
-300
-300
-300
-300
-300
-300
100
89.4546
79.2092
69.5398
60.6782
52.7978
46.0075
40.3537
35.8295
32.3888
29.963
28.4784
27.871
28.098
29.1446
31.0249
33.7775
37.4562
42.1151
47.7931
54.4963
62.1841
70.7598
80.0674
89.8975
100
100
89.4584
79.2084
69.5186
60.6142
52.6637
45.7728
39.9864
35.298
31.6639
29.0206
27.3018
26.454
26.4475
27.2823
28.9883
31.6193
35.2422
39.9213
45.7017
52.5912
60.5457
69.4601
79.1657
89.4358
100
-300
-300
-300
-300
-300
-300
-300
-300
-300
-300
-300
-300
-300
-300
-300
-300
-300
-300
-300
-300
-300
-300
-300
-300
100
89.4439
79.1863
69.5017
60.6204
52.7142
45.8907
40.1952
35.6201
32.1195
29.6258
28.0675
27.3841
27.5373
28.5173
30.3437
33.0605
36.7253
41.3955
47.1114
53.879
61.6562
70.3429
79.7792
89.7503
100
100
89.4584
79.2084
69.5185
60.6139
52.6632
45.772
39.9852
35.2961
31.6609
29.0159
27.2949
26.4441
26.4337
27.2636
28.964
31.5888
35.2055
39.8792
45.6558
52.5441
60.501
69.4217
79.1374
89.4207
100
-300
-300
-300
-300
-300
-300
-300
-300
-300
-300
-300
-300
-300
-300
-300
-300
-300
-300
-300
-300
-300
-300
-300
-300
100
89.427
79.1526
69.4511
60.5523
52.627
45.7814
40.0595
35.4527
31.9146
29.378
27.7726
27.04
27.1448
28.0809
29.8715
32.5642
36.2198
40.8977
46.6395
53.4514
61.2901
70.0537
79.5791
89.648
100
100
89.4583
79.2083
69.5183
60.6136
52.6626
45.771
39.9835
35.2933
31.6564
29.0091
27.2847
26.4293
26.4129
27.2355
28.9271
31.5424
35.1493
39.8142
45.5845
52.4704
60.4304
69.3606
79.0922
89.3967
100
-300
-300
-300
-300
-300
-300
-300
-300
-300
-300
-300
-300
-300
-300
-300
-300
-300
-300
-300
-300
-300
-300
-300
-300
100
89.4012
79.1028
69.3806
60.4645
52.5246
45.6656
39.9299
35.3071
31.7496
29.1898
27.5579
26.7966
26.8725
27.7817
29.5501
32.2278
35.8778
40.5613
46.3206
53.1623
61.0425
69.8579
79.4436
89.5787
100
100
89.4583
79.2081
69.518
60.6131
52.6618
45.7695
39.981
35.2893
31.6501
28.9993
27.2699
26.4079
26.3827
27.1943
28.8728
31.4733
35.0649
39.7159
45.4756
52.357
60.3208
69.2651
79.0211
89.3587
100
-300
-300
-300
-300
-300
-300
-300
-300
-300
-300
-300
-300
-300
-300
-300
-300
-300
-300
-300
-300
-300
-300
-300
-300
100
89.3617
79.0282
69.2782
60.3428
52.3914
45.5267
39.7883
35.1633
31.602
29.0356
27.3939
26.6201
26.6819
27.5772
29.3338
32.0034
35.6509
40.3387
46.11
52.9714
60.879
69.7287
79.3542
89.533
100
100
89.4582
79.208
69.5176
60.6124
52.6606
45.7675
39.9776
35.2837
31.6412
28.9855
27.2493
26.3776
26.3398
27.1353
28.7944
31.3729
34.9414
39.5704
45.3128
52.1855
60.1535
69.1178
78.9105
89.2992
100
-300
-300
-300
-300
-300
-300
-300
-300
-300
-300
-300
-300
-300
-300
-300
-300
-300
-300
-300
-300
-300
-300
-300
-300
100
89.3012
78.9151
69.1261
60.1673
52.2068
45.3442
39.6146
35.0012
31.451
28.8931
27.2561
26.4833
26.5433
27.435
29.1877
31.8549
35.5025
40.1941
45.9736
52.8482
60.7736
69.6454
79.2965
89.5035
100
100
89.4581
79.2077
69.5172
60.6116
52.6591
45.7648
39.9731
35.2762
31.6293
28.9669
27.221
26.3361
26.2805
27.0532
28.6844
31.2307
34.7645
39.3597
45.0741
51.9309
59.9016
68.8931
78.7401
89.2068
100
-300
-300
-300
-300
-300
-300
-300
-300
-300
-300
-300
-300
-300
-300
-300
-300
-300
-300
-300
-300
-300
-300
-300
-300
100
89.208
78.7429
68.8982
59.91
51.9437
45.0929
39.3861
34.8
31.277
28.7428
27.1246
26.3653
26.434
27.3308
29.0864
31.7555
35.4056
40.1011
45.8868
52.7701
60.707
69.5929
79.2602
89.485
100
100
89.458
79.2074
69.5166
60.6104
52.657
45.7613
39.9671
35.2664
31.6135
28.9423
27.1836
26.2806
26.2007
26.9419
28.534
31.0342
34.5172
39.0614
44.7312
51.5591
59.5276
68.5539
78.4787
89.0635
100
-300
-300
-300
-300
-300
-300
-300
-300
-300
-300
-300
-300
-300
-300
-300
-300
-300
-300
-300
-300
-300
-300
-300
-300
100
89.0643
78.4804
68.557
59.5326
51.5666
44.7421
39.0767
34.5379
31.061
28.5677
26.9832
26.2497
26.3372
27.247
29.0113
31.6865
35.3412
40.0412
45.8319
52.7213
60.6657
69.5604
79.2378
89.4735
100
100
89.4578
79.207
69.5158
60.609
52.6545
45.7569
39.9596
35.254
31.5935
28.9108
27.1353
26.2087
26.0965
26.7953
28.3339
30.7699
34.1803
38.6487
44.2486
51.0256
58.9794
68.0453
78.0783
88.8403
100
-300
-300
-300
-300
-300
-300
-300
-300
-300
-300
-300
-300
-300
-300
-300
-300
-300
-300
-300
-300
-300
-300
-300
-300
100
88.8408
78.0793
68.0471
58.9823
51.0299
44.2548
38.6574
34.192
30.785
28.353
26.8186
26.1242
26.2406
27.1711
28.9498
31.6347
35.2963
40.0015
45.7968
52.6909
60.6403
69.5406
79.2242
89.4666
100
100
89.4576
79.2066
69.5149
60.6073
52.6514
45.7515
39.9505
35.2387
31.5687
28.8716
27.0749
26.1182
25.9644
26.6077
28.0753
30.4243
33.7336
38.0922
43.5846
50.2742
58.1858
67.2865
77.462
88.4875
100
-300
-300
-300
-300
-300
-300
-300
-300
-300
-300
-300
-300
-300
-300
-300
-300
-300
-300
-300
-300
-300
-300
-300
-300
100
88.4877
77.4626
67.2875
58.1874
50.2766
43.5881
38.097
33.74
30.4327
28.0859
26.6206
25.9797
26.1358
27.0947
28.8931
31.5914
35.2621
39.9736
45.7736
52.6716
60.6246
69.5286
79.2161
89.4625
100
100
89.4574
79.2061
69.5139
60.6054
52.6479
45.7452
39.9396
35.2205
31.539
28.8243
27.0018
26.0077
25.802
26.3752
27.7514
29.9859
33.1583
37.3623
42.6938
49.2375
57.0529
66.158
76.5022
87.9127
100
-300
-300
-300
-300
-300
-300
-300
-300
-300
-300
-300
-300
-300
-300
-300
-300
-300
-300
-300
-300
-300
-300
-300
-300
100
87.9129
76.5026
66.1585
57.0538
49.2388
42.6957
37.3649
33.1618
29.9905
27.7571
26.3821
25.8102
26.0172
27.0124
28.8359
31.5513
35.2331
39.9521
45.7571
52.6587
60.6147
69.5213
79.2112
89.4601
100
100
89.4572
79.2055
69.5128
60.6032
52.6439
45.738
39.9271
35.1995
31.5045
28.7693
26.916
25.8773
25.6088
26.0962
27.3589
29.448
32.4413
36.4348
41.5335
47.843
55.4637
64.4864
74.9796
86.9264
100
-300
-300
-300
-300
-300
-300
-300
-300
-300
-300
-300
-300
-300
-300
-300
-300
-300
-300
-300
-300
-300
-300
-300
-300
100
86.9265
74.9798
64.4867
55.4641
47.8437
41.5345
36.4362
32.4432
29.4504
27.3619
26.0999
25.6132
25.8824
26.9216
28.7754
31.511
35.2062
39.9337
45.7443
52.6496
60.6082
69.5167
79.2083
89.4586
100
100
89.457
79.205
69.5117
60.601
52.6396
45.7303
39.9135
35.1762
31.466
28.7072
26.8187
25.7286
25.3869
25.7731
26.8997
28.8112
31.5799
35.2989
40.0757
46.0289
53.2926
62.0369
72.5111
85.0845
100
-300
-300
-300
-300
-300
-300
-300
-300
-300
-300
-300
-300
-300
-300
-300
-300
-300
-300
-300
-300
-300
-300
-300
-300
100
85.0846
72.5112
62.037
53.2928
46.0292
40.0762
35.2996
31.5809
28.8125
26.9012
25.775
25.3891
25.7312
26.8216
28.7104
31.4693
35.1797
39.9169
45.7335
52.6426
60.6036
69.5137
79.2064
89.4577
100
100
89.4569
79.2047
69.5108
60.599
52.6355
45.7224
39.8992
35.1515
31.4246
28.64
26.7124
25.5649
25.1409
25.4123
26.3825
28.0864
30.5863
33.9657
38.3239
43.7742
50.4525
58.5563
68.4698
81.1925
100
100
100
100
100
100
100
100
100
100
100
100
100
100
100
100
100
100
100
100
100
100
100
100
100
100
81.1925
68.4698
58.5564
50.4526
43.7744
38.3242
33.966
30.5868
28.087
26.3833
25.4132
25.1421
25.5662
26.7139
28.6416
31.4263
35.1532
39.9009
45.724
52.637
60.6003
69.5118
79.2054
89.4573
100
100
89.457
79.2047
69.5104
60.5976
52.632
45.7151
39.8853
35.1266
31.3821
28.57
26.6008
25.3916
24.8787
25.0249
25.8229
27.2954
29.4904
32.4756
36.3306
41.1411
46.9956
53.9846
62.1892
71.5641
81.1925
85.0845
86.9264
87.9127
88.4874
88.8401
89.0631
89.206
89.2978
89.3562
89.3922
89.4129
89.4224
89.4224
89.4129
89.3922
89.3562
89.2978
89.206
89.0631
88.8401
88.4874
87.9127
86.9264
85.0845
81.1925
71.5641
62.1892
53.9846
46.9956
41.1412
36.3307
32.4758
29.4907
27.2957
25.8233
25.0253
24.8793
25.3923
26.6015
28.5708
31.3829
35.1275
39.8862
45.7159
52.6328
60.5982
69.5109
79.2051
89.4572
100
100
89.4575
79.2055
69.5111
60.5976
52.6302
45.7096
39.8732
35.1035
31.3411
28.5009
26.4887
25.2158
24.6104
24.6257
25.2425
26.4695
28.3381
30.896
34.1975
38.2929
43.2135
48.9477
55.387
62.1892
68.4697
72.5111
74.9795
76.5021
77.4618
78.0779
78.4779
78.7386
78.9079
79.0163
79.0837
79.1226
79.1403
79.1403
79.1226
79.0837
79.0163
78.9079
78.7386
78.4779
78.0779
77.4618
76.5021
74.9795
72.5111
68.4697
62.1892
55.387
48.9478
43.2136
38.293
34.1976
30.896
28.3382
26.4696
25.2427
24.6259
24.6107
25.2161
26.4891
28.5013
31.3415
35.1039
39.8736
45.71
52.6305
60.5979
69.5113
79.2057
89.4575
100
100
89.4586
79.2076
69.5137
60.6001
52.6313
45.7076
39.8652
35.0848
31.3049
28.437
26.3823
25.0459
24.3481
24.2321
24.6666
25.6457
27.1837
29.3079
32.0484
35.4239
39.425
43.9869
48.9477
53.9846
58.5563
62.0369
64.4863
66.1579
67.2862
68.0448
68.5529
68.8912
69.1141
69.2585
69.349
69.4013
69.4253
69.4253
69.4013
69.349
69.2585
69.1141
68.8912
68.5529
68.0448
67.2862
66.1579
64.4863
62.0369
58.5563
53.9846
48.9477
43.9869
39.425
35.424
32.0484
29.308
27.1837
25.6458
24.6667
24.2322
24.3483
25.046
26.3824
28.4372
31.3051
35.085
39.8654
45.7078
52.6315
60.6002
69.5139
79.2076
89.4586
100
100
89.4609
79.212
69.5198
60.607
52.638
45.712
39.8645
35.0745
31.2783
28.3841
26.2889
24.8916
24.1051
23.8627
24.1216
24.8619
26.0819
27.7909
29.9986
32.7024
35.871
39.425
43.2135
46.9955
50.4525
53.2925
55.4636
57.0527
58.1855
58.9788
59.5264
59.8993
60.1492
60.3131
60.4166
60.477
60.5047
60.5047
60.477
60.4166
60.3131
60.1492
59.8993
59.5264
58.9788
58.1855
57.0527
55.4636
53.2925
50.4525
46.9955
43.2135
39.425
35.8711
32.7024
29.9986
27.7909
26.0819
24.8619
24.1217
23.8628
24.1052
24.8917
26.2889
28.3842
31.2784
35.0746
39.8646
45.7121
52.6381
60.6071
69.5198
79.212
89.4609
100
100
89.4652
79.2203
69.5316
60.6215
52.6538
45.7273
39.8761
35.0783
31.2677
28.3499
26.2175
24.7642
23.8956
23.5364
23.633
24.153
25.081
26.4115
28.1395
30.2493
32.7024
35.4239
38.2929
41.1411
43.7742
46.0288
47.843
49.2373
50.2738
51.0249
51.5577
51.9284
52.1809
52.3486
52.4556
52.5184
52.5474
52.5474
52.5184
52.4556
52.3486
52.1809
51.9284
51.5577
51.0249
50.2738
49.2373
47.843
46.0288
43.7742
41.1411
38.2929
35.4239
32.7024
30.2494
28.1395
26.4115
25.081
24.153
23.633
23.5364
23.8957
24.7642
26.2175
28.3499
31.2678
35.0784
39.8762
45.7273
52.6539
60.6215
69.5316
79.2203
89.4652
100
100
89.4727
79.235
69.5529
60.6483
52.6847
45.76
39.9078
35.1045
31.2825
28.3445
26.1796
24.6768
23.7353
23.2721
23.2244
23.5493
24.2201
25.2198
26.5337
28.1395
29.9986
32.0484
34.1975
36.3306
38.3239
40.0756
41.5334
42.6936
43.5843
44.2479
44.7298
45.0716
45.3082
45.4672
45.5697
45.6303
45.6583
45.6583
45.6303
45.5697
45.4672
45.3082
45.0716
44.7298
44.2479
43.5843
42.6936
41.5334
40.0756
38.3239
36.3306
34.1975
32.0484
29.9986
28.1395
26.5337
25.2198
24.2201
23.5493
23.2244
23.2721
23.7354
24.6768
26.1797
28.3445
31.2825
35.1046
39.9078
45.76
52.6847
60.6483
69.5529
79.235
89.4727
100
100
89.4855
79.2601
69.5894
60.6949
52.7394
45.8204
39.9707
35.1657
31.336
28.3823
26.1907
24.646
23.6423
23.09
22.9188
23.0772
23.5296
24.251
25.2198
26.4115
27.7909
29.3079
30.896
32.4756
33.9657
35.2988
36.4348
37.3621
38.0919
38.6481
39.0601
39.3573
39.566
39.708
39.8004
39.8553
39.8809