# vtk DataFile Version 2.0
LBE two cylinders
ASCII
DATASET STRUCTURED_POINTS
DIMENSIONS 76 76 1
ASPECT_RATIO 1 1 1
ORIGIN 0 0 0
POINT_DATA 5776
SCALARS temp double 1
LOOKUP_TABLE default
100
100
100
100
100
100
100
100
100
100
100
100
100
100
100
100
100
100
100
100
100
100
100
100
100
100
-300
-300
-300
-300
-300
-300
-300
-300
-300
-300
-300
-300
-300
-300
100
100
100
100
100
100
100
100
100
100
100
100
100
100
100
100
100
100
100
100
100
100
100
100
100
100
-300
-300
-300
-300
-300
-300
-300
-300
-300
-300
100
98.8375
97.7023
96.62
95.6128
94.6988
93.8912
93.1983
92.624
92.1688
91.831
91.6079
91.4972
91.4972
91.6079
91.831
92.1688
92.624
93.1983
93.8912
94.6988
95.6128
96.62
97.7023
98.8375
100
-300
-300
-300
-300
-300
-300
-300
-300
-300
-300
-300
-300
-300
-300
100
98.8392
97.7055
96.6246
95.6186
94.7056
93.8988
93.2063
92.6321
92.1768
91.8387
91.6152
91.5038
91.503
91.613
91.8353
92.1723
92.6268
93.2005
93.8929
94.7001
95.6137
96.6206
97.7027
98.8377
100
-300
-300
-300
-300
-300
-300
-300
-300
-300
-300
100
97.7017
95.4574
93.3174
91.3262
89.5192
87.9225
86.5525
85.417
84.517
83.8492
83.4083
83.1892
83.1892
83.4083
83.8492
84.517
85.417
86.5525
87.9225
89.5192
91.3262
93.3174
95.4574
97.7017
100
-300
-300
-300
-300
-300
-300
-300
-300
-300
-300
-300
-300
-300
-300
100
97.7054
95.4646
93.328
91.3395
89.5348
87.9398
86.5708
85.4357
84.5355
83.867
83.4249
83.2044
83.2027
83.4199
83.8591
84.5252
85.4235
86.5576
87.9264
89.522
91.3282
93.3188
95.4582
97.7021
100
-300
-300
-300
-300
-300
-300
-300
-300
-300
-300
100
96.6173
93.3141
90.1645
87.2337
84.5741
82.2241
80.2078
78.5366
77.212
76.2291
75.5801
75.2578
75.2578
75.5801
76.2291
77.212
78.5366
80.2078
82.2241
84.5741
87.2337
90.1645
93.3141
96.6173
100
-300
-300
-300
-300
-300
-300
-300
-300
-300
-300
-300
-300
-300
-300
100
96.6242
93.3275
90.184
87.2584
84.603
82.2561
80.2417
78.5712
77.2463
76.262
75.6109
75.2859
75.2827
75.6017
76.2474
77.227
78.5487
80.2172
82.2313
84.5794
87.2374
90.167
93.3156
96.6181
100
-300
-300
-300
-300
-300
-300
-300
-300
-300
-300
100
95.6058
91.3147
87.2233
83.4161
79.9612
76.9085
74.2892
72.1183
70.3976
69.1209
68.2778
67.8591
67.8591
68.2778
69.1209
70.3976
72.1183
74.2892
76.9085
79.9612
83.4161
87.2233
91.3147
95.6058
100
-300
-300
-300
-300
-300
-300
-300
-300
-300
-300
-300
-300
-300
-300
100
95.6177
91.3379
87.2569
83.4587
80.0111
76.9638
74.3478
72.1781
70.4569
69.1778
68.3311
67.9076
67.9022
68.3152
69.1524
70.4236
72.1391
74.3055
76.9208
79.9702
83.4224
87.2275
91.3173
95.607
100
-300
-300
-300
-300
-300
-300
-300
-300
-300
-300
100
94.6837
89.4922
84.5423
79.9362
75.7565
72.0632
68.8944
66.268
64.1863
62.6417
61.6218
61.1152
61.1152
61.6218
62.6417
64.1863
66.268
68.8944
72.0632
75.7565
79.9362
84.5423
89.4922
94.6837
100
-300
-300
-300
-300
-300
-300
-300
-300
-300
-300
-300
-300
-300
-300
100
94.7036
89.531
84.5985
80.0075
75.8399
72.1556
68.9923
66.368
64.2853
62.7369
61.7108
61.1964
61.1873
61.6842
62.6943
64.2296
66.3026
68.9214
72.0836
75.7714
79.9467
84.5493
89.4964
94.6857
100
-300
-300
-300
-300
-300
-300
-300
-300
-300
-300
100
93.8624
87.8689
82.1543
76.8367
72.0112
67.7475
64.0891
61.057
58.6539
56.8706
55.6932
55.1084
55.1084
55.6932
56.8706
58.6539
61.057
64.0891
67.7475
72.0112
76.8367
82.1543
87.8689
93.8624
100
-300
-300
-300
-300
-300
-300
-300
-300
-300
-300
-300
-300
-300
-300
100
93.8948
87.9322
82.246
76.9529
72.1473
67.8982
64.249
61.2204
58.8156
57.0262
55.8387
55.241
55.2261
55.7951
56.9565
58.7244
61.1134
64.1329
67.7805
72.0352
76.8535
82.1654
87.8756
93.8656
100
-300
-300
-300
-300
-300
-300
-300
-300
-300
-300
100
93.1475
86.4558
80.0756
74.1386
68.7512
63.9909
59.9065
56.5213
53.8383
51.8474
50.5329
49.88
49.88
50.5329
51.8474
53.8383
56.5213
59.9065
63.9909
68.7512
74.1386
80.0756
86.4558
93.1475
100
-300
-300
-300
-300
-300
-300
-300
-300
-300
-300
-300
-300
-300
-300
100
93.1992
86.5571
80.2221
74.3244
68.9688
64.232
60.1623
56.7828
54.0973
52.0965
50.7659
50.0923
50.0684
50.6958
51.9847
53.9509
56.6111
59.9761
64.0431
68.7891
74.165
80.093
86.4663
93.1524
100
-300
-300
-300
-300
-300
-300
-300
-300
-300
-300
100
92.5394
85.2538
78.3074
71.8435
65.978
60.7952
56.3485
52.6629
49.7419
47.5744
46.1433
45.4325
45.4325
46.1433
47.5744
49.7419
52.6629
56.3485
60.7952
65.978
71.8435
78.3074
85.2538
92.5394
100
-300
-300
-300
-300
-300
-300
-300
-300
-300
-300
-300
-300
-300
-300
100
92.6204
85.4124
78.537
72.1348
66.3193
61.1735
56.7498
53.0735
50.1485
47.9655
46.5091
45.7657
45.7281
46.3987
47.7894
49.9179
52.8031
56.4567
60.8762
66.0364
71.884
78.3339
85.2696
92.5467
100
-300
-300
-300
-300
-300
-300
-300
-300
-300
-300
100
92.0337
84.2544
76.8372
69.9353
63.6723
58.1384
53.3903
49.4551
46.3362
44.0219
42.4939
41.7349
41.7349
42.4939
44.0219
46.3362
49.4551
53.3903
58.1384
63.6723
69.9353
76.8372
84.2544
92.0337
100
-300
-300
-300
-300
-300
-300
-300
-300
-300
-300
-300
-300
-300
-300
100
92.1582
84.4981
77.1902
70.3832
64.1973
58.7205
54.0081
50.0873
46.9625
44.6243
43.0573
42.2479
42.1898
42.8866
44.3519
46.606
49.6693
53.5553
58.2613
63.7605
69.996
76.8767
84.2777
92.0445
100
-300
-300
-300
-300
-300
-300
-300
-300
-300
-300
100
91.6228
83.4422
75.6424
68.3845
61.7985
55.9792
50.9864
46.8483
43.5686
41.135
39.5282
38.7302
38.7302
39.5282
41.135
43.5686
46.8483
50.9864
55.9792
61.7985
68.3845
75.6424
83.4422
91.6228
100
-300
-300
-300
-300
-300
-300
-300
-300
-300
-300
-300
-300
-300
-300
100
91.8104
83.8097
76.1747
69.0602
62.5909
56.8581
51.9196
47.8035
44.5151
42.0455
40.3797
39.5051
39.4168
40.1204
41.632
43.974
47.1693
51.2326
56.1617
61.9287
68.4734
75.6997
83.4757
91.6381
100
-300
-300
-300
-300
-300
-300
-300
-300
-300
-300
100
91.2963
82.797
74.6933
67.1526
60.31
54.2641
49.0768
44.7775
41.3701
38.8418
37.1724
36.3433
36.3433
37.1724
38.8418
41.3701
44.7775
49.0768
54.2641
60.31
67.1526
74.6933
82.797
91.2963
100
-300
-300
-300
-300
-300
-300
-300
-300
-300
-300
-300
-300
-300
-300
100
91.5738
83.3405
75.4809
68.1528
61.4835
55.5662
50.46
46.1939
42.774
40.1923
38.4353
37.4921
37.3603
38.0484
39.5755
41.9672
45.2487
49.4365
54.5291
60.4976
67.2794
74.7741
82.8437
91.3175
100
-300
-300
-300
-300
-300
-300
-300
-300
-300
-300
100
91.0428
82.2958
73.9561
66.1958
59.154
52.932
47.5937
43.1693
39.6628
37.0609
35.343
34.4898
34.4898
35.343
37.0609
39.6628
43.1693
47.5937
52.932
59.154
66.1958
73.9561
82.2958
91.0428
100
-300
-300
-300
-300
-300
-300
-300
-300
-300
-300
-300
-300
-300
-300
100
91.4454
83.0848
75.0997
67.6486
60.8595
54.8255
49.6062
45.2309
41.7068
39.0272
37.1811
36.1608
35.9676
36.614
38.1233
40.5248
43.8469
48.1084
53.3084
59.4179
66.372
74.0668
82.3589
91.0711
100
-300
-300
-300
-300
-300
-300
-300
-300
-300
-300
100
90.8503
81.9153
73.3964
65.4694
58.2762
51.9206
46.4677
41.9483
38.3665
35.7087
33.9539
33.0824
33.0824
33.9539
35.7087
38.3665
41.9483
46.4677
51.9206
58.2762
65.4694
73.3964
81.9153
90.8503
100
-300
-300
-300
-300
-300
-300
-300
-300
-300
-300
-300
-300
-300
-300
100
91.4236
83.039
75.0258
67.5404
60.709
54.6234
49.342
44.8942
41.2882
38.5195
36.5806
35.4685
35.1899
35.7632
37.2172
39.5862
42.9026
47.188
52.4429
58.6381
65.7073
73.5429
81.9971
90.8863
100
-300
-300
-300
-300
-300
-300
-300
-300
-300
-300
100
90.7073
81.6328
72.9808
64.93
57.6245
51.1697
45.6316
41.0417
37.404
34.7048
32.9226
32.0375
32.0375
32.9226
34.7048
37.404
41.0417
45.6316
51.1697
57.6245
64.93
72.9808
81.6328
90.7073
100
-300
-300
-300
-300
-300
-300
-300
-300
-300
-300
-300
-300
-300
-300
100
91.5085
83.2035
75.2595
67.8282
61.0315
54.9577
49.663
45.176
41.5057
38.6506
36.6083
35.3825
34.9874
35.4497
36.8055
39.0957
42.3581
46.6177
51.8772
58.1076
65.2411
73.1674
81.7339
90.7507
100
-300
-300
-300
-300
-300
-300
-300
-300
-300
-300
100
90.6035
81.4277
72.679
64.5383
57.1513
50.6244
45.0245
40.3834
36.7051
33.9758
32.1738
31.2788
31.2788
32.1738
33.9758
36.7051
40.3834
45.0245
50.6244
57.1513
64.5383
72.679
81.4277
90.6035
100
-300
-300
-300
-300
-300
-300
-300
-300
-300
-300
-300
-300
-300
-300
100
91.7024
83.5828
75.8075
68.5204
61.8365
55.8386
50.5787
46.0835
42.3624
39.4179
37.2541
35.8838
35.3324
35.6372
36.8448
39.0047
42.1613
46.3442
51.559
57.7775
64.9308
72.9058
81.5449
90.6516
100
-300
-300
-300
-300
-300
-300
-300
-300
-300
-300
100
90.5298
81.282
72.4647
64.2601
56.8152
50.2371
44.5934
39.9159
36.2088
33.4582
31.6421
30.7401
30.7401
31.6421
33.4582
36.2088
39.9159
44.5934
50.2371
56.8152
64.2601
72.4647
81.282
90.5298
100
-300
-300
-300
-300
-300
-300
-300
-300
-300
-300
-300
-300
-300
-300
100
92.0095
84.1853
76.682
69.6332
63.1439
57.2885
52.1129
47.6397
43.8784
40.8353
38.5233
36.968
36.2095
36.3004
37.3009
39.2718
42.2659
46.3188
51.4394
57.601
64.7343
72.7233
81.4053
90.5762
100
-300
-300
-300
-300
-300
-300
-300
-300
-300
-300
100
90.4786
81.1807
72.3158
64.0668
56.5817
49.9681
44.2939
39.5911
35.8641
33.0986
31.2727
30.3658
30.3658
31.2727
33.0986
35.8641
39.5911
44.2939
49.9681
56.5817
64.0668
72.3158
81.1807
90.4786
100
-300
-300
-300
-300
-300
-300
-300
-300
-300
-300
-300
-300
-300
-300
100
92.435
85.0213
77.8993
71.1883
64.9809
59.34
54.3018
49.8827
46.0897
42.9331
40.4366
38.6433
37.614
37.4223
38.1463
39.8612
42.63
46.4954
51.4708
57.5317
64.6088
72.5839
81.2889
90.5104
100
-300
-300
-300
-300
-300
-300
-300
-300
-300
-300
100
90.4438
81.1119
72.2146
63.9355
56.423
49.7852
44.0903
39.3704
35.6297
32.8541
31.0216
30.1114
30.1114
31.0216
32.8541
35.6297
39.3704
44.0903
49.7852
56.423
63.9355
72.2146
81.1119
90.4438
100
-300
-300
-300
-300
-300
-300
-300
-300
-300
-300
-300
-300
-300
-300
100
92.984
86.1017
79.4759
73.2093
67.3787
62.0319
57.1917
52.8632
49.0474
45.7564
43.0273
40.9276
39.5479
38.9902
39.3564
40.7388
43.2127
46.8287
51.6052
57.521
64.5082
72.4474
81.1654
90.438
100
-300
-300
-300
-300
-300
-300
-300
-300
-300
-300
100
90.4206
81.0662
72.1472
63.8481
56.3174
49.6636
43.9549
39.2236
35.4739
32.6916
30.8546
29.9423
29.9423
30.8546
32.6916
35.4739
39.2236
43.9549
49.6636
56.3174
63.8481
72.1472
81.0662
90.4206
100
-300
-300
-300
-300
-300
-300
-300
-300
-300
-300
-300
-300
-300
-300
100
93.6602
87.4341
81.425
75.7165
70.3665
65.4044
60.834
56.6425
52.8167
49.3649
46.3394
43.8439
42.0134
40.9893
40.9033
41.8677
43.9704
47.27
51.7905
57.5149
64.3792
72.2654
80.9969
90.3379
100
-300
-300
-300
-300
-300
-300
-300
-300
-300
-300
100
90.4056
81.0364
72.1034
63.7913
56.2487
49.5845
43.8668
39.1281
35.3725
32.5858
30.746
29.8322
29.8322
30.746
32.5858
35.3725
39.1281
43.8668
49.5845
56.2487
63.7913
72.1034
81.0364
90.4056
100
-300
-300
-300
-300
-300
-300
-300
-300
-300
-300
-300
-300
-300
-300
100
94.464
89.0204
83.7516
78.7207
73.965
69.4921
65.2811
61.2908
57.4789
53.8353
50.4258
47.4142
45.0049
43.3943
42.7493
43.2026
44.8528
47.7648
51.9678
57.4509
64.1572
71.9756
80.732
90.1799
100
-300
-300
-300
-300
-300
-300
-300
-300
-300
-300
100
90.396
81.0174
72.0755
63.755
56.205
49.5341
43.8107
39.0672
35.3079
32.5184
30.6768
29.7621
29.7621
30.6768
32.5184
35.3079
39.0672
43.8107
49.534
56.205
63.755
72.0755
81.0174
90.396
100
-300
-300
-300
-300
-300
-300
-300
-300
-300
-300
-300
-300
-300
-300
100
95.3909
90.8527
86.4468
82.2162
78.1776
74.3157
70.5798
66.8873
63.1402
59.2736
55.3495
51.6499
48.4962
46.158
44.8383
44.6843
45.7994
48.2506
52.0703
57.2552
63.7612
71.4942
80.2951
89.9168
100
-300
-300
-300
-300
-300
-300
-300
-300
-300
-300
100
90.39
81.0056
72.0581
63.7324
56.1777
49.5026
43.7757
39.0293
35.2676
32.4764
30.6336
29.7183
29.7183
30.6336
32.4764
35.2676
39.0293
43.7757
49.5026
56.1777
63.7324
72.0581
81.0055
90.39
100
-300
-300
-300
-300
-300
-300
-300
-300
-300
-300
-300
-300
-300
-300
100
96.43
92.9103
89.4829
86.1729
82.98
79.8693
76.7611
73.5198
69.9523
65.8513
61.186
56.5341
52.4203
49.197
47.0874
46.2363
46.7394
48.6579
52.0243
56.8434
63.0906
70.7046
79.5684
89.4657
100
-300
-300
-300
-300
-300
-300
-300
-300
-300
-300
100
90.3863
80.9983
72.0475
63.7186
56.161
49.4834
43.7543
39.0061
35.243
32.4508
30.6072
29.6916
29.6916
30.6072
32.4508
35.243
39.0061
43.7543
49.4834
56.161
63.7186
72.0475
80.9983
90.3863
100
-300
-300
-300
-300
-300
-300
-300
-300
-300
-300
-300
-300
-300
-300
100
97.5628
95.1573
92.8087
90.5286
88.3072
86.1015
83.8172
81.2744
78.1501
73.9141
68.0155
61.9768
56.6349
52.3733
49.3804
47.7643
47.5941
48.9153
51.7551
56.1252
62.0253
69.4452
78.3571
88.6621
100
-300
-300
-300
-300
-300
-300
-300
-300
-300
-300
100
90.3841
80.994
72.0411
63.7104
56.151
49.4719
43.7415
38.9922
35.2283
32.4354
30.5915
29.6756
29.6756
30.5915
32.4354
35.2282
38.9922
43.7415
49.4719
56.151
63.7104
72.0411
80.994
90.3841
100
-300
-300
-300
-300
-300
-300
-300
-300
-300
-300
-300
-300
-300
-300
100
98.7635
97.5422
96.3475
95.1834
94.0405
92.8876
91.6532
90.1782
88.084
84.3491
75.8244
67.6984
60.8674
55.4789
51.5684
49.1619
48.285
48.9591
51.1999
55.02
60.439
67.5045
76.3306
87.1296
100
-300
-300
-300
-300
-300
-300
-300
-300
-300
-300
100
90.3829
80.9915
72.0374
63.7056
56.1452
49.4652
43.734
38.9841
35.2197
32.4264
30.5822
29.6663
29.6663
30.5822
32.4264
35.2196
38.984
43.7339
49.4651
56.1451
63.7055
72.0373
80.9914
90.3828
100
-300
-300
-300
-300
-300
-300
-300
-300
-300
-300
-300
-300
-300
-300
100
100
100
100
100
100
100
100
100
100
100
83.873
72.9641
64.6645
58.2459
53.4886
50.3277
48.7478
48.747
50.3254
53.4848
58.2408
64.6583
72.9574
83.8675
100
100
100
100
100
100
100
100
100
100
100
100
90.3821
80.99
72.0353
63.7028
56.1419
49.4613
43.7297
38.9795
35.2147
32.4213
30.5769
29.6609
29.6609
30.5769
32.4212
35.2146
38.9793
43.7296
49.4612
56.1417
63.7026
72.0351
80.9899
90.3821
100
-300
-300
-300
-300
-300
-300
-300
-300
-300
-300
-300
-300
-300
-300
-300
-300
-300
-300
-300
-300
-300
-300
-300
-300
100
87.1298
76.3296
67.5017
60.4339
55.0127
51.1904
48.9476
48.2717
49.147
51.5521
55.4616
60.8494
67.6804
75.8074
84.3341
88.0702
90.1653
91.6414
92.877
94.0313
95.1758
96.3417
97.5382
98.7615
100
100
90.3817
80.9892
72.0341
63.7012
56.14
49.4592
43.7273
38.9768
35.2119
32.4183
30.5739
29.6578
29.6578
30.5738
32.4181
35.2117
38.9765
43.727
49.4588
56.1396
63.7009
72.0338
80.989
90.3816
100
-300
-300
-300
-300
-300
-300
-300
-300
-300
-300
-300
-300
-300
-300
-300
-300
-300
-300
-300
-300
-300
-300
-300
-300
100
88.6583
78.3493
69.4331
62.0089
56.1049
51.7312
48.8882
47.5643
47.7323
49.3468
52.3384
56.5995
61.9415
67.981
73.8811
78.1187
81.245
83.7901
86.0773
88.2861
90.5112
92.7953
95.1482
97.5582
100
100
90.3815
80.9888
72.0334
63.7004
56.1389
49.4579
43.7259
38.9753
35.2103
32.4167
30.5722
29.656
29.656
30.572
32.4163
35.2099
38.9748
43.7253
49.4573
56.1383
63.6998
72.0329
80.9884
90.3813
100
-300
-300
-300
-300
-300
-300
-300
-300
-300
-300
-300
-300
-300
-300
-300
-300
-300
-300
-300
-300
-300
-300
-300
-300
100
89.4575
79.552
70.6801
63.0586
56.8045
51.9793
48.6077
46.6849
46.1783
47.0268
49.1346
52.3572
56.4711
61.124
65.7912
69.8948
73.4658
76.7113
79.8246
82.9412
86.1408
89.4582
92.8935
96.4215
100
100
90.3814
80.9885
72.033
63.6999
56.1383
49.4573
43.7252
38.9745
35.2094
32.4157
30.5711
29.6549
29.6548
30.5708
32.4151
35.2086
38.9735
43.7241
49.4561
56.1372
63.6989
72.0322
80.9879
90.381
100
-300
-300
-300
-300
-300
-300
-300
-300
-300
-300
-300
-300
-300
-300
-300
-300
-300
-300
-300
-300
-300
-300
-300
-300
100
89.9021
80.266
71.4512
63.7053
57.1877
51.9926
48.1641
45.7057
44.5849
44.7347
46.0516
48.3885
51.5424
55.2436
59.1706
63.0416
66.7945
70.4943
74.2389
78.111
82.161
86.4043
90.8239
95.3763
100
100
90.3813
80.9884
72.0328
63.6996
56.138
49.4569
43.7247
38.974
35.2088
32.415
30.5704
29.6541
29.6539
30.5697
32.414
35.2074
38.9723
43.7228
49.4548
56.136
63.6978
72.0313
80.9873
90.3807
100
-300
-300
-300
-300
-300
-300
-300
-300
-300
-300
-300
-300
-300
-300
-300
-300
-300
-300
-300
-300
-300
-300
-300
-300
100
90.1552
80.683
71.9037
64.0638
57.3383
51.8382
47.6208
44.6969
43.0374
42.5773
43.2179
44.8264
47.2359
50.2501
53.6644
57.3152
61.1367
65.139
69.3645
73.8543
78.6291
83.681
88.9725
94.4397
100
100
90.3812
80.9883
72.0327
63.6995
56.1378
49.4566
43.7244
38.9736
35.2084
32.4145
30.5697
29.6533
29.6529
30.5685
32.4126
35.2058
38.9706
43.721
49.453
56.1343
63.6962
72.03
80.9864
90.3802
100
-300
-300
-300
-300
-300
-300
-300
-300
-300
-300
-300
-300
-300
-300
-300
-300
-300
-300
-300
-300
-300
-300
-300
-300
100
90.2975
80.9172
72.1482
64.2274
57.3318
51.5799
47.0361
43.7174
41.5996
40.6242
40.7031
41.7239
43.5548
46.0544
49.0877
52.5511
56.3925
60.6035
65.1974
70.1869
75.5679
81.3105
87.3563
93.6208
100
100
90.3812
80.9882
72.0326
63.6994
56.1377
49.4564
43.7241
38.9732
35.2079
32.4138
30.5688
29.6521
29.6515
30.5668
32.4105
35.2035
38.968
43.7182
49.4502
56.1315
63.6937
72.028
80.9849
90.3795
100
-300
-300
-300
-300
-300
-300
-300
-300
-300
-300
-300
-300
-300
-300
-300
-300
-300
-300
-300
-300
-300
-300
-300
-300
100
90.3737
81.0384
72.2608
64.2665
57.2296
51.2702
46.4566
42.8102
40.3125
38.9127
38.5354
39.0879
40.4682
42.5745
45.316
48.6255
52.466
56.8255
61.7031
67.0933
72.9732
79.2939
85.978
92.9214
100
100
90.3812
80.9882
72.0326
63.6992
56.1375
49.4562
43.7238
38.9727
35.2072
32.4128
30.5675
29.6505
29.6493
30.5642
32.4073
35.1998
38.9638
43.7137
49.4456
56.127
63.6896
72.0246
80.9825
90.3782
100
-300
-300
-300
-300
-300
-300
-300
-300
-300
-300
-300
-300
-300
-300
-300
-300
-300
-300
-300
-300
-300
-300
-300
-300
100
90.41
81.0906
72.2927
64.2316
57.0771
50.9483
45.9153
42.0026
39.1969
37.4551
36.7138
36.8975
37.9279
39.7315
42.2474
45.4328
49.2643
53.7317
58.8281
64.5367
70.8207
77.6161
84.8288
92.3376
100
100
90.3812
80.9882
72.0325
63.6991
56.1373
49.4558
43.7233
38.972
35.2061
32.4114
30.5656
29.6478
29.6459
30.5599
32.4022
35.1938
38.957
43.7064
49.4381
56.1197
63.683
72.019
80.9785
90.3761
100
-300
-300
-300
-300
-300
-300
-300
-300
-300
-300
-300
-300
-300
-300
-300
-300
-300
-300
-300
-300
-300
-300
-300
-300
100
90.4225
81.1018
72.2776
64.1572
56.9055
50.6403
45.4318
41.307
38.2568
36.245
35.2182
35.1153
35.8758
37.4468
39.7885
42.8757
46.6958
51.2428
56.5073
62.466
69.0722
76.2498
83.8915
91.8608
100
100
90.3812
80.9881
72.0324
63.6989
56.137
49.4554
43.7225
38.9709
35.2045
32.4092
30.5625
29.6438
29.6407
30.5533
32.3942
35.1843
38.9463
43.6948
49.426
56.1079
63.6722
72.0101
80.9721
90.3728
100
-300
-300
-300
-300
-300
-300
-300
-300
-300
-300
-300
-300
-300
-300
-300
-300
-300
-300
-300
-300
-300
-300
-300
-300
100
90.4208
81.0893
72.2368
64.0647
56.7341
50.3607
45.0145
40.7242
37.4839
35.2632
34.0167
33.6942
34.2488
35.6428
37.8512
40.8618
44.671
49.2768
54.6696
60.8222
67.681
75.1608
83.1433
91.48
100
100
90.3811
80.988
72.0322
63.6986
56.1365
49.4546
43.7214
38.9693
35.2021
32.4058
30.5578
29.6375
29.6326
30.5431
32.3817
35.1696
38.9296
43.6766
49.4071
56.0893
63.6551
71.9958
80.9618
90.3674
100
-300
-300
-300
-300
-300
-300
-300
-300
-300
-300
-300
-300
-300
-300
-300
-300
-300
-300
-300
-300
-300
-300
-300
-300
100
90.4107
81.0629
72.1824
63.9663
56.5723
50.1146
44.6627
40.246
36.8614
34.4824
33.0701
32.5825
32.9825
34.2435
36.3516
39.3038
43.1036
47.7529
53.2427
59.5435
66.5969
74.3109
82.5587
91.1822
100
100
90.381
80.9878
72.0319
63.6982
56.1358
49.4536
43.7198
38.9668
35.1986
32.4007
30.5509
29.6282
29.6203
30.5276
32.3627
35.147
38.9038
43.6484
49.3776
56.0602
63.6284
71.9734
80.9456
90.3589
100
-300
-300
-300
-300
-300
-300
-300
-300
-300
-300
-300
-300
-300
-300
-300
-300
-300
-300
-300
-300
-300
-300
-300
-300
100
90.3949
81.0274
72.1199
63.8663
56.4221
49.8999
44.3687
39.8582
36.3668
33.8712
32.3369
31.7278
32.0142
33.1775
35.2115
38.1203
41.9128
46.5941
52.1564
58.5686
65.7693
73.6613
82.1115
90.9543
100
100
90.381
80.9876
72.0316
63.6976
56.1348
49.452
43.7174
38.9633
35.1934
32.3933
30.5406
29.6143
29.6022
30.5045
32.3342
35.1132
38.865
43.6056
49.3328
56.0157
63.5872
71.9388
80.9205
90.3457
100
-300
-300
-300
-300
-300
-300
-300
-300
-300
-300
-300
-300
-300
-300
-300
-300
-300
-300
-300
-300
-300
-300
-300
-300
100
90.374
80.9836
72.0494
63.7634
56.2796
49.7092
44.1202
39.5425
35.9751
33.3966
31.7755
31.08
31.2854
32.3788
34.3597
37.2374
41.0248
45.7298
51.3455
57.8403
65.1504
73.1751
81.7766
90.7836
100
100
90.3808
80.9874
72.0311
63.6967
56.1334
49.4498
43.7141
38.9582
35.186
32.3828
30.5259
29.5944
29.5759
30.4709
32.2926
35.0632
38.8073
43.5418
49.2653
55.9484
63.5246
71.8859
80.8821
90.3255
100
-300
-300
-300
-300
-300
-300
-300
-300
-300
-300
-300
-300
-300
-300
-300
-300
-300
-300
-300
-300
-300
-300
-300
-300
100
90.3467
80.9289
71.9667
63.6515
56.1361
49.5304
43.9015
39.2785
35.6603
33.0263
31.3469
30.5929
30.7432
31.7888
33.7333
36.5899
40.3746
45.0973
50.752
57.3069
64.6969
72.8187
81.531
90.6583
100
100
90.3807
80.987
72.0304
63.6955
56.1315
49.4468
43.7094
38.9512
35.1757
32.368
30.5053
29.5663
29.5387
30.4229
32.2327
34.9911
38.7234
43.4481
49.1657
55.8483
63.4309
71.8062
80.8239
90.2947
100
-300
-300
-300
-300
-300
-300
-300
-300
-300
-300
-300
-300
-300
-300
-300
-300
-300
-300
-300
-300
-300
-300
-300
-300
100
90.3101
80.8575
71.8635
63.5198
55.9785
49.3482
43.6944
39.0444
35.3964
32.7297
31.0152
30.2253
30.3413
31.3568
33.2785
36.1223
39.9064
44.6426
50.3257
56.924
64.3712
72.5627
81.3545
90.5683
100
100
90.3804
80.9865
72.0294
63.694
56.129
49.4428
43.7031
38.9417
35.1617
32.3478
30.4769
29.5274
29.4869
30.3559
32.1485
34.8886
38.6034
43.3131
49.0209
55.7014
63.2922
71.6874
80.7366
90.2484
100
-300
-300
-300
-300
-300
-300
-300
-300
-300
-300
-300
-300
-300
-300
-300
-300
-300
-300
-300
-300
-300
-300
-300
-300
100
90.2591
80.7599
71.7269
63.3529
55.7896
49.1438
43.4781
38.8176
35.1584
32.4785
30.7486
29.9417
30.0404
31.0404
32.9502
35.788
39.5739
44.321
50.0249
56.654
64.1419
72.3824
81.2302
90.5049
100
100
90.3801
80.9858
72.0282
63.6919
56.1256
49.4374
43.6949
38.9291
35.143
32.3208
30.4388
29.4749
29.4164
30.264
32.0322
34.7462
38.4349
43.1218
48.8134
55.4887
63.0892
71.5119
80.6065
90.179
100
-300
-300
-300
-300
-300
-300
-300
-300
-300
-300
-300
-300
-300
-300
-300
-300
-300
-300
-300
-300
-300
-300
-300
-300
100
90.1863
80.6223
71.5384
63.1297
55.5472
48.8944
43.23
38.5751
34.9222
32.2472
30.5195
29.712
29.8081
30.8046
32.7119
35.5497
39.3397
44.0962
49.8157
56.467
63.9832
72.2579
81.1444
90.4611
100
100
90.3798
80.985
72.0267
63.6893
56.1213
49.4306
43.6842
38.9129
35.1188
32.2856
30.3887
29.4055
29.3228
30.141
31.8753
34.5521
38.203
42.8553
48.5208
55.185
62.7955
71.2546
80.4138
90.0754
100
-300
-300
-300
-300
-300
-300
-300
-300
-300
-300
-300
-300
-300
-300
-300
-300
-300
-300
-300
-300
-300
-300
-300
-300
100
90.0802
80.4243
71.272
62.8219
55.2229
48.5731
42.9249
38.2928
34.6647
32.0126
30.304
29.5112
29.6178
30.6218
32.5347
35.3779
39.1745
43.94
49.6718
56.3391
63.8752
72.1732
81.0862
90.4315
100
100
90.3793
80.9839
72.0248
63.6861
56.116
49.422
43.6708
38.8924
35.0881
32.2407
30.3246
29.3161
29.2013
29.9801
31.668
34.2931
37.8899
42.4908
48.1149
54.7567
62.3744
70.8795
80.1287
89.9203
100
-300
-300
-300
-300
-300
-300
-300
-300
-300
-300
-300
-300
-300
-300
-300
-300
-300
-300
-300
-300
-300
-300
-300
-300
100
89.9235
80.1354
70.8907
62.3912
54.7807
48.1479
42.5346
37.9463
34.3637
31.754
30.082
29.3191
29.4488
30.4702
32.3964
35.25
39.0559
43.8308
49.5729
56.2522
63.8024
72.1165
81.0473
90.4117
100
100
90.3788
80.9827
72.0226
63.6822
56.1096
49.4116
43.6544
38.8671
35.0502
32.1849
30.2444
29.2037
29.0473
29.7744
31.4006
33.9551
37.4761
42.0018
47.5608
54.1607
61.7758
70.3343
79.7053
89.6864
100
-300
-300
-300
-300
-300
-300
-300
-300
-300
-300
-300
-300
-300
-300
-300
-300
-300
-300
-300
-300
-300
-300
-300
-300
100
89.6884
79.7096
70.3413
61.7863
54.1757
47.5813
42.0288
37.5108
33.9985
31.4534
29.837
29.1195
29.2851
30.3337
32.2803
35.1495
38.9674
43.7525
49.5042
56.1932
63.7536
72.0789
81.0217
90.3987
100
100
90.3782
80.9813
72.02
63.6777
56.102
49.3994
43.6349
38.837
35.0046
32.1174
30.1469
29.0659
28.8571
29.5182
31.064
33.5246
36.9414
41.3593
46.8183
53.3431
60.9321
69.5425
79.0712
89.3266
100
-300
-300
-300
-300
-300
-300
-300
-300
-300
-300
-300
-300
-300
-300
-300
-300
-300
-300
-300
-300
-300
-300
-300
-300
100
89.3278
79.0738
69.5468
60.9385
53.3522
46.8307
41.3757
36.9624
33.5508
31.0958
29.5559
28.9006
29.1148
30.2006
32.1748
35.0643
38.8973
43.694
49.4551
56.1524
63.7207
72.0539
81.0048
90.3902
100
100
90.3776
80.9798
72.0171
63.6727
56.0935
49.3853
43.6125
38.802
34.9512
32.038
30.0314
28.9015
28.6285
29.2075
30.6515
32.9905
36.2679
40.5349
45.8437
52.2398
59.7541
68.3911
78.1061
88.7542
100
-300
-300
-300
-300
-300
-300
-300
-300
-300
-300
-300
-300
-300
-300
-300
-300
-300
-300
-300
-300
-300
-300
-300
-300
100
88.7549
78.1076
68.3937
59.7579
52.2452
45.8511
40.5446
36.2803
33.0059
30.6703
29.2297
28.6542
28.9304
30.0631
32.0719
34.9865
38.8376
43.6474
49.4182
56.1232
63.6981
72.0371
80.9937
90.3846
100
100
90.3769
80.9783
72.0141
63.6673
56.0842
49.3699
43.5875
38.7626
34.8907
31.9473
29.8985
28.7111
28.3615
28.8413
30.1602
32.3463
35.443
39.5057
44.5965
50.7819
58.1313
66.7167
76.6034
87.7907
100
-300
-300
-300
-300
-300
-300
-300
-300
-300
-300
-300
-300
-300
-300
-300
-300
-300
-300
-300
-300
-300
-300
-300
-300
100
87.7912
76.6043
66.7182
58.1335
50.7851
44.6008
39.5113
35.4502
32.3552
30.1711
28.8541
28.3763
28.7278
29.9168
31.967
34.9111
38.7832
43.6077
49.3889
56.1015
63.682
72.0258
80.9863
90.381
100
100
90.3764
80.977
72.0114
63.662
56.0748
49.3537
43.5607
38.7199
34.8244
31.847
29.7503
28.4971
28.059
28.4228
29.5931
31.5936
34.4648
38.2613
43.0499
48.9104
55.9443
64.2973
74.2022
86.0186
100
-300
-300
-300
-300
-300
-300
-300
-300
-300
-300
-300
-300
-300
-300
-300
-300
-300
-300
-300
-300
-300
-300
-300
-300
100
86.0188
74.2028
64.2981
55.9456
48.9122
43.0523
38.2645
34.4689
31.5987
29.5993
28.4301
28.0675
28.5066
29.7607
31.8582
34.836
38.7316
43.5722
49.3645
56.0846
63.6704
72.018
80.9815
90.3787
100
100
90.3761
80.9761
72.0092
63.6575
56.066
49.3378
43.5336
38.6756
34.7545
31.7399
29.5905
28.2643
27.7274
27.9601
28.9603
30.7444
33.3459
36.8132
41.2073
46.6047
53.1094
60.8922
70.3105
82.3129
100
100
100
100
100
100
100
100
100
100
100
100
100
100
100
100
100
100
100
100
100
100
100
100
100
100
82.313
70.3108
60.8927
53.1101
46.6057
41.2087
36.815
33.3482
30.7472
28.9637
27.9642
27.7321
28.2696
29.5963
31.7462
34.761
38.6821
43.54
49.3438
56.0714
63.6622
72.0129
80.9787
90.3774
100
100
90.3764
80.9762
72.0085
63.6547
56.0591
49.3239
43.5082
38.6322
34.6843
31.6304
29.4248
28.0204
27.3766
27.4664
28.2792
29.8218
32.1171
35.2009
39.1184
43.9222
49.6727
56.4399
64.2952
73.2016
82.3129
86.0185
87.7906
88.754
89.3262
89.6858
89.9193
90.0736
90.1759
90.2433
90.2862
90.3116
90.3234
90.3234
90.3116
90.2862
90.2433
90.1759
90.0736
89.9193
89.6858
89.3262
88.754
87.7906
86.0185
82.3129
73.2017
64.2954
56.4402
49.6731
43.9228
39.1191
35.2019
32.1184
29.8234
28.2811
27.4687
27.3792
28.0233
29.428
31.6338
34.6878
38.6358
43.5117
49.3272
56.0621
63.6573
72.0106
80.9776
90.3771
100
100
90.3775
80.9781
72.0104
63.6552
56.0562
49.3143
43.4874
38.5936
34.6183
31.5241
29.2607
27.775
27.0199
26.9597
27.5743
28.8595
30.825
33.4906
36.8805
41.0161
45.9051
51.5221
57.7586
64.2952
70.3105
74.2021
76.6032
78.1057
79.0706
79.7042
80.1267
80.4105
80.6007
80.7268
80.8077
80.8556
80.8779
80.8779
80.8556
80.8077
80.7268
80.6007
80.4105
80.1267
79.7042
79.0706
78.1057
76.6032
74.2022
70.3105
64.2953
57.7586
51.5223
45.9054
41.0164
36.8809
33.4912
30.8257
28.8603
27.5753
26.9609
27.0212
27.7766
29.2624
31.5259
34.6202
38.5955
43.4893
49.3161
56.0578
63.6566
72.0115
80.9789
90.3779
100
100
90.3801
80.983
72.0166
63.6614
56.0601
49.3127
43.4756
38.5646
34.5627
31.4287
29.1076
27.5406
26.6732
26.4614
26.8749
27.8978
29.5262
31.7636
34.6136
38.0706
42.1053
46.6425
51.5221
56.4399
60.8921
64.2971
66.7165
68.3907
69.5416
70.3328
70.8768
71.2498
71.5038
71.6737
71.7836
71.8491
71.8795
71.8795
71.8491
71.7836
71.6737
71.5038
71.2498
70.8768
70.3328
69.5416
68.3907
66.7165
64.2971
60.8921
56.4399
51.5222
46.6426
42.1055
38.0707
34.6138
31.7638
29.5266
27.8983
26.8754
26.462
26.6739
27.5414
29.1085
31.4297
34.5637
38.5656
43.4766
49.3137
56.0609
63.6621
72.0172
80.9834
90.3803
100
100
90.3851
80.9925
72.0298
63.6767
56.0752
49.3242
43.4786
38.5524
34.5257
31.3538
28.9773
27.3316
26.3551
25.9956
26.2129
26.9798
28.2797
30.1016
32.4327
35.2493
38.5032
42.1053
45.9051
49.6726
53.1093
55.9441
58.1309
59.7535
60.931
61.7739
62.3711
62.7898
63.0794
63.2757
63.4037
63.4803
63.5162
63.5162
63.4803
63.4037
63.2757
63.0794
62.7898
62.3711
61.7739
60.931
59.7535
58.1309
55.9441
53.1093
49.6726
45.9052
42.1054
38.5032
35.2494
32.4328
30.1017
28.2799
26.9801
26.2131
25.9959
26.3555
27.332
28.9778
31.3543
34.5262
38.5529
43.4791
49.3247
56.0756
63.677
72.0301
80.9927
90.3852
100
100
90.3938
81.0094
72.0538
63.7061
56.1075
49.356
43.5049
38.5663
34.518
31.3119
28.8842
27.165
26.0862
25.5878
25.6207
26.1476
27.1407
28.5775
30.4338
32.6756
35.2493
38.0706
41.016
43.9222
46.6046
48.9102
50.7816
52.2392
53.342
54.1587
54.753
55.1786
55.4779
55.6833
55.8184
55.8999
55.9382
55.9382
55.8999
55.8184
55.6833
55.4779
55.1786
54.753
54.1587
53.342
52.2392
50.7816
48.9102
46.6046
43.9222
41.016
38.0706
35.2493
32.6757
30.4338
28.5775
27.1408
26.1477
25.6208
25.588
26.0864
27.1652
28.8844
31.3121
34.5183
38.5666
43.5051
49.3562
56.1077
63.7063
72.0539
81.0095
90.3938
100
100
90.408
81.0372
72.094
63.7568
56.1659
49.4183
43.566
38.6194
34.554
31.3187
28.8458
27.0608
25.8896
25.2652
25.1308
25.4405
26.1576
27.251
28.6891
30.4338
32.4327
34.6135
36.8805
39.1183
41.2072
43.0497
44.5961
45.8431
46.8171
47.5587
48.1111
48.5143
48.8023
49.0023
49.1351
49.2158
49.2537
49.2537
49.2158
49.1351
49.0023
48.8023
48.5143
48.1111
47.5587
46.8171
45.8431
44.5961
43.0497
41.2072
39.1183
36.8805
34.6136
32.4327
30.4338
28.6891
27.251
26.1577
25.4406
25.1309
25.2653
25.8897
27.0609
28.8459
31.3188
34.5541
38.6196
43.5661
49.4184
56.166
63.7569
72.0941
81.0373
90.408
100
100
90.4304
81.0813
72.1582
63.8388
56.2625
49.5252
43.6778
38.7292
34.6528
31.3949
28.8846
27.0431
25.7916
25.057
24.776
24.8958
25.3728
26.1697
27.251
28.5774
30.1016
31.7636
33.4906
35.2008
36.8131
38.2611
39.5053
40.5343
41.3581
41.9997
42.4871