# vtk DataFile Version 2.0
LBE two cylinders
ASCII
DATASET STRUCTURED_POINTS
DIMENSIONS 76 76 1
ASPECT_RATIO 1 1 1
ORIGIN 0 0 0
POINT_DATA 5776
SCALARS temp double 1
LOOKUP_TABLE default
100
100
100
100
100
100
100
100
100
100
100
100
100
100
100
100
100
100
100
100
100
100
100
100
100
100
-300
-300
-300
-300
-300
-300
-300
-300
-300
-300
-300
-300
-300
-300
100
100
100
100
100
100
100
100
100
100
100
100
100
100
100
100
100
100
100
100
100
100
100
100
100
100
-300
-300
-300
-300
-300
-300
-300
-300
-300
-300
100
98.2609
96.5813
95.0148
93.6038
92.3766
91.3463
90.512
89.8624
89.3788
89.0402
88.8272
88.7247
88.7247
88.8272
89.0402
89.3788
89.8624
90.512
91.3463
92.3766
93.6038
95.0148
96.5813
98.2609
100
-300
-300
-300
-300
-300
-300
-300
-300
-300
-300
-300
-300
-300
-300
100
98.261
96.5815
95.0151
93.6042
92.377
91.3467
90.5125
89.8628
89.3792
89.0406
88.8275
88.725
88.7249
88.8274
89.0404
89.3789
89.8625
90.5121
91.3463
92.3766
93.6038
95.0148
96.5813
98.2609
100
-300
-300
-300
-300
-300
-300
-300
-300
-300
-300
100
96.5812
93.2795
90.2002
87.4265
85.014
82.9886
81.3488
80.0717
79.1211
78.4556
78.0368
77.8353
77.8353
78.0368
78.4556
79.1211
80.0717
81.3488
82.9886
85.014
87.4265
90.2002
93.2795
96.5812
100
-300
-300
-300
-300
-300
-300
-300
-300
-300
-300
-300
-300
-300
-300
100
96.5815
93.2801
90.2009
87.4274
85.0151
82.9898
81.35
80.0729
79.1222
78.4567
78.0377
77.8361
77.836
78.0374
78.4561
79.1214
80.0719
81.3489
82.9887
85.0141
87.4265
90.2002
93.2796
96.5812
100
-300
-300
-300
-300
-300
-300
-300
-300
-300
-300
100
95.0145
90.1997
85.7091
81.6644
78.1464
75.1928
72.8016
70.9393
69.5532
68.5828
67.9721
67.6783
67.6783
67.9721
68.5828
69.5532
70.9393
72.8016
75.1928
78.1464
81.6644
85.7091
90.1997
95.0145
100
-300
-300
-300
-300
-300
-300
-300
-300
-300
-300
-300
-300
-300
-300
100
95.0151
90.2009
85.7108
81.6665
78.1488
75.1955
72.8043
70.942
69.5557
68.5852
67.9742
67.6801
67.6798
67.9734
68.5838
69.5539
70.9399
72.802
75.1931
78.1466
81.6645
85.7092
90.1997
95.0145
100
-300
-300
-300
-300
-300
-300
-300
-300
-300
-300
100
93.6028
87.4248
81.6628
76.4729
71.9589
68.1692
65.101
62.7117
60.9332
59.6882
58.9047
58.5277
58.5277
58.9047
59.6882
60.9332
62.7117
65.101
68.1692
71.9589
76.4729
81.6628
87.4248
93.6028
100
-300
-300
-300
-300
-300
-300
-300
-300
-300
-300
-300
-300
-300
-300
100
93.6041
87.4273
81.6663
76.4773
71.9641
68.1748
65.1068
62.7174
60.9386
59.6932
58.9092
58.5316
58.531
58.9073
59.6903
60.9348
62.7128
65.1019
68.1698
71.9593
76.4731
81.6629
87.4249
93.6029
100
-300
-300
-300
-300
-300
-300
-300
-300
-300
-300
100
92.3742
85.0097
78.1411
71.9545
66.5738
62.0565
58.3993
55.5513
53.4314
51.9475
51.0136
50.5643
50.5643
51.0136
51.9475
53.4314
55.5513
58.3993
62.0565
66.5738
71.9545
78.1411
85.0097
92.3742
100
-300
-300
-300
-300
-300
-300
-300
-300
-300
-300
-300
-300
-300
-300
100
92.3768
85.0148
78.1484
71.9636
66.5843
62.0679
58.4111
55.563
53.4426
51.9578
51.0229
50.5723
50.571
51.0191
51.9518
53.4347
55.5536
58.401
62.0576
66.5745
71.9549
78.1413
85.0098
92.3743
100
-300
-300
-300
-300
-300
-300
-300
-300
-300
-300
100
91.3411
82.9789
75.1798
68.1553
62.0458
56.9168
52.7644
49.5308
47.124
45.4393
44.379
43.8689
43.8689
44.379
45.4393
47.124
49.5308
52.7644
56.9168
62.0458
68.1553
75.1798
82.9789
91.3411
100
-300
-300
-300
-300
-300
-300
-300
-300
-300
-300
-300
-300
-300
-300
100
91.3463
82.989
75.1943
68.1734
62.0667
56.9394
52.7878
49.5541
47.1463
45.4599
44.3975
43.8849
43.8823
44.3899
45.4478
47.1305
49.5355
52.7677
56.9189
62.0472
68.1561
75.1802
82.9791
91.3412
100
-300
-300
-300
-300
-300
-300
-300
-300
-300
-300
100
90.5017
81.3288
72.7737
65.0683
58.3668
52.7408
48.1862
44.6394
41.9996
40.1518
38.9889
38.4295
38.4295
38.9889
40.1518
41.9996
44.6394
48.1862
52.7408
58.3668
65.0683
72.7737
81.3288
90.5017
100
-300
-300
-300
-300
-300
-300
-300
-300
-300
-300
-300
-300
-300
-300
100
90.5117
81.3482
72.8016
65.1033
58.4071
52.7846
48.2315
44.6845
42.0428
40.1918
39.0248
38.4605
38.4555
39.0101
40.1684
42.0121
44.6485
48.1925
52.745
58.3694
65.0698
72.7745
81.3291
90.5018
100
-300
-300
-300
-300
-300
-300
-300
-300
-300
-300
100
89.8424
80.0329
70.8842
62.6441
55.4778
49.4616
44.5912
40.7986
37.9759
36.0001
34.7567
34.1585
34.1585
34.7567
36.0001
37.9759
40.7986
44.5912
49.4616
55.4778
62.6441
70.8842
80.0329
89.8424
100
-300
-300
-300
-300
-300
-300
-300
-300
-300
-300
-300
-300
-300
-300
100
89.8612
80.0695
70.9367
62.7099
55.5536
49.544
44.6766
40.8836
38.0574
36.0756
34.8244
34.2172
34.2077
34.7967
36.0314
37.9995
40.8157
44.603
49.4694
55.4825
62.6468
70.8855
80.0335
89.8426
100
-300
-300
-300
-300
-300
-300
-300
-300
-300
-300
100
89.3419
79.0491
69.4497
60.8038
53.2846
46.9723
41.8622
37.8831
34.9216
32.8488
31.5443
30.9167
30.9167
31.5443
32.8488
34.9216
37.8831
41.8622
46.9723
53.2846
60.8038
69.4497
79.0491
89.3419
100
-300
-300
-300
-300
-300
-300
-300
-300
-300
-300
-300
-300
-300
-300
100
89.3762
79.116
69.5456
60.9241
53.4234
47.1232
42.0187
38.0389
35.0711
32.9873
31.6685
31.0244
31.0071
31.6176
32.9061
34.9649
37.9144
41.8838
46.9863
53.2931
60.8085
69.4519
79.05
89.3422
100
-300
-300
-300
-300
-300
-300
-300
-300
-300
-300
100
88.9745
78.3269
68.3966
59.4529
51.6746
45.145
39.8591
35.7432
32.6799
30.5358
29.1865
28.5374
28.5374
29.1865
30.5358
32.6799
35.7432
39.8591
45.145
51.6746
59.4529
68.3966
78.3269
88.9745
100
-300
-300
-300
-300
-300
-300
-300
-300
-300
-300
-300
-300
-300
-300
100
89.0355
78.4457
68.5672
59.6668
51.9216
45.4137
40.1379
36.0209
32.9465
30.783
29.4083
28.7297
28.6987
29.3173
30.6381
32.7569
35.7987
39.8972
45.1696
51.6893
59.4607
68.4002
78.3282
88.9748
100
-300
-300
-300
-300
-300
-300
-300
-300
-300
-300
100
88.7136
77.8141
67.6489
58.4937
50.5316
43.8477
38.437
34.2239
31.0884
28.8938
27.5128
26.8483
26.8483
27.5128
28.8938
31.0884
34.2239
38.437
43.8477
50.5316
58.4937
67.6489
77.8141
88.7136
100
-300
-300
-300
-300
-300
-300
-300
-300
-300
-300
-300
-300
-300
-300
100
88.8189
78.0192
67.9436
58.8634
50.9588
44.3129
38.9201
34.7055
31.5511
29.3231
27.8978
27.1823
27.1284
27.7397
29.071
31.2215
34.3195
38.5021
43.8893
50.5559
58.5062
67.6542
77.8156
88.7138
100
-300
-300
-300
-300
-300
-300
-300
-300
-300
-300
100
88.5344
77.4618
67.1352
57.8347
49.7463
42.9565
37.4601
33.1803
29.9953
27.766
26.3632
25.6882
25.6882
26.3632
27.766
29.9953
33.1803
37.4601
42.9565
49.7463
57.8347
67.1352
77.4618
88.5344
100
-300
-300
-300
-300
-300
-300
-300
-300
-300
-300
-300
-300
-300
-300
100
88.711
77.8062
67.6302
58.4562
50.465
43.7397
38.2741
33.9926
30.7761
28.4909
27.0135
26.2524
26.1611
26.7458
28.0644
30.2188
33.3402
37.5683
43.0247
49.7853
57.8538
67.1423
77.463
88.5339
100
-300
-300
-300
-300
-300
-300
-300
-300
-300
-300
100
88.4152
77.2275
66.7937
57.3965
49.2242
42.364
36.8106
32.4866
29.2686
27.0162
25.5989
24.9171
24.9171
25.5989
27.0162
29.2686
32.4866
36.8106
42.364
49.2242
57.3965
66.7937
77.2275
88.4152
100
-300
-300
-300
-300
-300
-300
-300
-300
-300
-300
-300
-300
-300
-300
100
88.7034
77.7896
67.602
58.4121
50.3996
43.6461
38.1446
33.8189
30.5505
28.207
26.6676
25.8438
25.6934
26.2264
27.5046
29.6331
32.746
36.9847
42.472
49.284
57.4239
66.8018
77.2269
88.413
100
-300
-300
-300
-300
-300
-300
-300
-300
-300
-300
100
88.3385
77.0767
66.5738
57.1145
48.8881
41.9826
36.3926
32.04
28.8008
26.5337
25.1071
24.4208
24.4208
25.1071
26.5337
28.8008
32.04
36.3926
41.9826
48.8881
57.1145
66.5738
77.0767
88.3385
100
-300
-300
-300
-300
-300
-300
-300
-300
-300
-300
-300
-300
-300
-300
100
88.7955
77.9684
67.8568
58.7279
50.7572
44.0238
38.5187
34.1659
30.8484
28.4367
26.8153
25.9016
25.6601
26.1073
27.3102
29.3784
32.4485
36.6638
42.1476
48.9759
57.1507
66.5802
77.0708
88.3324
100
-300
-300
-300
-300
-300
-300
-300
-300
-300
-300
100
88.2906
76.9827
66.4367
56.9386
48.6786
41.7448
36.132
31.7617
28.5093
26.2329
24.8005
24.1114
24.1114
24.8005
26.2329
28.5093
31.7617
36.132
41.7448
48.6786
56.9386
66.4367
76.9827
88.2906
100
-300
-300
-300
-300
-300
-300
-300
-300
-300
-300
-300
-300
-300
-300
100
88.9952
78.3577
68.4167
59.4308
51.569
44.9054
39.4287
35.0623
31.6916
29.1926
27.4573
26.4135
26.0357
26.3504
27.4326
29.3975
32.3854
36.5408
41.9875
48.8007
56.981
66.4344
76.9642
88.2761
100
-300
-300
-300
-300
-300
-300
-300
-300
-300
-300
100
88.2617
76.9258
66.3538
56.8324
48.552
41.6012
35.9746
31.5935
28.3332
26.0513
24.6154
23.9246
23.9246
24.6154
26.0513
28.3332
31.5935
35.9746
41.6012
48.552
56.8324
66.3538
76.9258
88.2617
100
-300
-300
-300
-300
-300
-300
-300
-300
-300
-300
-300
-300
-300
-300
100
89.3175
78.9874
69.3246
60.5756
52.8992
46.3622
40.9488
36.5813
33.148
30.5323
28.6377
27.4069
26.8307
26.9501
27.8519
29.6592
32.5166
36.5703
41.9438
48.7113
56.8716
66.3283
76.8811
88.2306
100
-300
-300
-300
-300
-300
-300
-300
-300
-300
-300
100
88.2448
76.8926
66.3053
56.7702
48.4779
41.5171
35.8824
31.4951
28.2301
25.9449
24.507
23.8152
23.8152
24.507
25.9449
28.2301
31.4951
35.8824
41.5171
48.4779
56.7702
66.3053
76.8926
88.2448
100
-300
-300
-300
-300
-300
-300
-300
-300
-300
-300
-300
-300
-300
-300
100
89.783
79.8978
70.6399
62.2386
54.8387
48.4964
43.1886
38.8348
35.3256
32.5532
30.4375
28.9431
28.085
27.9263
28.5704
30.1512
32.8185
36.7203
41.9794
48.6684
56.7843
66.2284
76.7964
88.1824
100
-300
-300
-300
-300
-300
-300
-300
-300
-300
-300
100
88.2352
76.8737
66.2778
56.7349
48.4359
41.4693
35.8301
31.4393
28.1716
25.8846
24.4455
23.7531
23.7531
24.4455
25.8846
28.1716
31.4393
35.8301
41.4693
48.4359
56.7349
66.2778
76.8737
88.2352
100
-300
-300
-300
-300
-300
-300
-300
-300
-300
-300
-300
-300
-300
-300
100
90.4145
81.1341
72.4291
64.5066
57.493
51.4293
46.2818
41.9632
38.3636
35.3841
32.966
31.1067
29.8577
29.3142
29.603
30.8717
33.2763
36.9657
42.0615
48.6345
56.6805
66.0991
76.6822
88.1161
100
-300
-300
-300
-300
-300
-300
-300
-300
-300
-300
100
88.2299
76.8633
66.2626
56.7154
48.4127
41.4431
35.8013
31.4085
28.1394
25.8513
24.4116
23.7189
23.7189
24.4116
25.8513
28.1394
31.4085
35.8013
41.4431
48.4127
56.7154
66.2626
76.8633
88.2299
100
-300
-300
-300
-300
-300
-300
-300
-300
-300
-300
-300
-300
-300
-300
100
91.2333
82.7387
74.7557
67.4641
60.9672
55.2867
50.3723
46.1236
42.4228
39.1758
36.3504
33.9937
32.2134
31.1513
30.9654
31.8195
33.8753
37.2809
42.1555
48.5681
56.5145
65.8957
76.5021
88.0107
100
-300
-300
-300
-300
-300
-300
-300
-300
-300
-300
100
88.2271
76.8577
66.2545
56.705
48.4003
41.429
35.7859
31.3921
28.1222
25.8336
24.3935
23.7007
23.7007
24.3935
25.8336
28.1222
31.3921
35.7859
41.429
48.4003
56.705
66.2545
76.8577
88.2271
100
-300
-300
-300
-300
-300
-300
-300
-300
-300
-300
-300
-300
-300
-300
100
92.2544
84.7421
77.6669
71.1767
65.348
60.179
55.5968
51.4767
47.6778
44.0955
40.7252
37.6961
35.2054
33.4616
32.661
32.9837
34.5932
37.6336
42.2191
48.4171
56.2271
65.557
76.2027
87.8342
100
-300
-300
-300
-300
-300
-300
-300
-300
-300
-300
100
88.2256
76.8548
66.2503
56.6996
48.3939
41.4217
35.7779
31.3835
28.1132
25.8244
24.3841
23.6912
23.6912
24.3841
25.8244
28.1132
31.3835
35.7779
41.4217
48.3939
56.6996
66.2503
76.8548
88.2256
100
-300
-300
-300
-300
-300
-300
-300
-300
-300
-300
-300
-300
-300
-300
100
93.4821
87.1543
81.1802
75.6737
70.6828
66.1807
62.0662
58.1762
54.3166
50.3309
46.2245
42.283
38.8538
36.2362
34.6665
34.3331
35.3934
37.9801
42.1987
48.1151
55.738
64.9942
75.7008
87.5332
100
-300
-300
-300
-300
-300
-300
-300
-300
-300
-300
100
88.2248
76.8534
66.2482
56.6969
48.3906
41.418
35.7739
31.3792
28.1087
25.8197
24.3794
23.6864
23.6864
24.3794
25.8197
28.1087
31.3792
35.7739
41.418
48.3906
56.6969
66.2482
76.8534
88.2248
100
-300
-300
-300
-300
-300
-300
-300
-300
-300
-300
-300
-300
-300
-300
100
94.9061
89.9559
85.271
80.9314
76.9588
73.3051
69.8427
66.3577
62.5561
58.1259
52.9765
47.7708
43.1146
39.4111
36.9172
35.8092
36.2215
38.2647
42.0296
47.5803
54.9414
64.0775
74.8602
87.0102
100
-300
-300
-300
-300
-300
-300
-300
-300
-300
-300
100
88.2245
76.8527
66.2472
56.6956
48.3891
41.4162
35.7719
31.3771
28.1065
25.8175
24.3771
23.6841
23.6841
24.3771
25.8175
28.1065
31.3771
35.7719
41.4162
48.3891
56.6956
66.2472
76.8527
88.2245
100
-300
-300
-300
-300
-300
-300
-300
-300
-300
-300
-300
-300
-300
-300
100
96.499
93.0938
89.8643
86.859
84.0815
81.4759
78.9061
76.1197
72.6821
67.9065
61.0876
54.0638
47.8335
42.841
39.297
37.3228
37.0067
38.4239
41.6424
46.7213
53.7059
62.6205
73.4496
86.0666
100
-300
-300
-300
-300
-300
-300
-300
-300
-300
-300
100
88.2243
76.8523
66.2467
56.695
48.3883
41.4154
35.771
31.3761
28.1055
25.8164
24.376
23.683
23.683
24.376
25.8164
28.1055
31.3761
35.771
41.4154
48.3883
56.6949
66.2467
76.8523
88.2243
100
-300
-300
-300
-300
-300
-300
-300
-300
-300
-300
-300
-300
-300
-300
100
98.2164
96.4806
94.8318
93.2924
91.8592
90.4923
89.0938
87.4526
85.086
80.7271
70.5194
60.8099
52.6778
46.2805
41.6376
38.7612
37.6716
38.3982
40.9777
45.4554
51.8907
60.3751
71.0706
84.2435
100
-300
-300
-300
-300
-300
-300
-300
-300
-300
-300
100
88.2242
76.8522
66.2465
56.6947
48.388
41.415
35.7705
31.3757
28.105
25.8159
24.3755
23.6825
23.6825
24.3755
25.8159
28.105
31.3757
35.7705
41.415
48.388
56.6947
66.2465
76.8522
88.2242
100
-300
-300
-300
-300
-300
-300
-300
-300
-300
-300
-300
-300
-300
-300
100
100
100
100
100
100
100
100
100
100
100
80.3153
67.0802
57.0788
49.3983
43.7438
40.0081
38.1482
38.1482
40.008
43.7437
49.3981
57.0786
67.08
80.3151
100
100
100
100
100
100
100
100
100
100
100
100
88.2242
76.8521
66.2464
56.6945
48.3878
41.4148
35.7703
31.3755
28.1048
25.8157
24.3752
23.6823
23.6823
24.3752
25.8157
28.1048
31.3755
35.7703
41.4148
48.3878
56.6945
66.2464
76.8521
88.2242
100
-300
-300
-300
-300
-300
-300
-300
-300
-300
-300
-300
-300
-300
-300
-300
-300
-300
-300
-300
-300
-300
-300
-300
-300
100
84.2434
71.0705
60.3748
51.8904
45.455
40.9772
38.3976
37.671
38.7604
41.6368
46.2797
52.677
60.8091
70.5186
80.7263
85.0853
87.4519
89.0932
90.4918
91.8587
93.292
94.8315
96.4803
98.2163
100
100
88.2242
76.8521
66.2463
56.6945
48.3877
41.4147
35.7703
31.3754
28.1047
25.8156
24.3751
23.6821
23.6821
24.3751
25.8156
28.1047
31.3754
35.7702
41.4147
48.3877
56.6945
66.2463
76.8521
88.2242
100
-300
-300
-300
-300
-300
-300
-300
-300
-300
-300
-300
-300
-300
-300
-300
-300
-300
-300
-300
-300
-300
-300
-300
-300
100
86.0663
73.449
62.6197
53.7048
46.72
41.6409
38.4223
37.0049
37.321
39.2951
42.839
47.8315
54.0618
61.0856
67.9046
72.6802
76.1179
78.9045
81.4744
84.0802
86.8579
89.8634
93.0932
96.4987
100
100
88.2242
76.8521
66.2463
56.6944
48.3877
41.4147
35.7702
31.3753
28.1046
25.8155
24.3751
23.6821
23.6821
24.3751
25.8155
28.1046
31.3753
35.7702
41.4147
48.3877
56.6944
66.2463
76.852
88.2242
100
-300
-300
-300
-300
-300
-300
-300
-300
-300
-300
-300
-300
-300
-300
-300
-300
-300
-300
-300
-300
-300
-300
-300
-300
100
87.0095
74.8589
64.0755
54.939
47.5773
42.0262
38.261
36.2175
35.8051
36.913
39.4068
43.1103
47.7665
52.9722
58.1217
62.552
66.3538
69.839
73.3018
76.9558
80.9289
85.2691
89.9545
94.9054
100
100
88.2242
76.8521
66.2463
56.6944
48.3877
41.4147
35.7702
31.3753
28.1046
25.8155
24.3751
23.6821
23.6821
24.3751
25.8155
28.1046
31.3753
35.7701
41.4146
48.3876
56.6944
66.2462
76.852
88.2242
100
-300
-300
-300
-300
-300
-300
-300
-300
-300
-300
-300
-300
-300
-300
-300
-300
-300
-300
-300
-300
-300
-300
-300
-300
100
87.5318
75.698
64.9901
55.7328
48.1089
42.1916
37.9724
35.3852
34.3245
34.6575
36.2272
38.8446
42.2739
46.2155
50.3221
54.308
58.168
62.0585
66.1736
70.6766
75.6685
81.1761
87.1515
93.4806
100
100
88.2242
76.8521
66.2463
56.6944
48.3877
41.4147
35.7702
31.3753
28.1046
25.8155
24.3751
23.6821
23.682
24.375
25.8154
28.1045
31.3752
35.7701
41.4146
48.3875
56.6943
66.2462
76.852
88.2241
100
-300
-300
-300
-300
-300
-300
-300
-300
-300
-300
-300
-300
-300
-300
-300
-300
-300
-300
-300
-300
-300
-300
-300
-300
100
87.8313
76.197
65.5486
56.2163
48.4043
42.2046
37.6178
34.5763
32.966
32.6428
33.4431
35.1868
37.6775
40.7068
44.0774
47.6602
51.46
55.5811
60.1647
65.3353
71.1661
77.6586
84.7365
92.2515
100
100
88.2242
76.8521
66.2463
56.6944
48.3877
41.4147
35.7702
31.3753
28.1046
25.8155
24.375
23.682
23.682
24.375
25.8154
28.1044
31.3751
35.7699
41.4144
48.3874
56.6941
66.246
76.8519
88.2241
100
-300
-300
-300
-300
-300
-300
-300
-300
-300
-300
-300
-300
-300
-300
-300
-300
-300
-300
-300
-300
-300
-300
-300
-300
100
88.0048
76.4907
65.8791
56.4932
48.5428
42.1268
37.2495
33.8418
31.7846
30.9294
31.1147
32.1765
33.9568
36.3138
39.1399
42.388
46.0904
50.3412
55.2583
60.9422
67.4431
74.7393
82.7274
91.2276
100
100
88.2242
76.8521
66.2463
56.6944
48.3877
41.4147
35.7702
31.3753
28.1046
25.8155
24.375
23.682
23.6819
24.3748
25.8152
28.1042
31.3748
35.7696
41.4141
48.387
56.6938
66.2457
76.8517
88.224
100
-300
-300
-300
-300
-300
-300
-300
-300
-300
-300
-300
-300
-300
-300
-300
-300
-300
-300
-300
-300
-300
-300
-300
-300
100
88.1049
76.6602
66.067
56.6394
48.5857
42.0062
36.9052
33.2118
30.8043
29.5336
29.2436
29.7865
31.0355
32.8955
35.315
38.2966
41.8992
46.2219
51.3747
57.4448
64.4662
72.3975
81.1124
90.4035
100
100
88.2242
76.8521
66.2463
56.6944
48.3877
41.4147
35.7702
31.3753
28.1046
25.8154
24.3749
23.6819
23.6818
24.3746
25.8149
28.1038
31.3743
35.769
41.4134
48.3863
56.6931
66.2452
76.8512
88.2237
100
-300
-300
-300
-300
-300
-300
-300
-300
-300
-300
-300
-300
-300
-300
-300
-300
-300
-300
-300
-300
-300
-300
-300
-300
100
88.1614
76.755
66.1682
56.7072
48.5768
41.8757
36.6069
32.6977
30.0249
28.4404
27.7939
27.9516
28.8098
30.3054
32.4237
35.2001
38.7149
43.0763
48.394
54.7485
62.1628
70.5808
79.8573
89.7624
100
100
88.2242
76.8521
66.2463
56.6944
48.3877
41.4147
35.7702
31.3752
28.1045
25.8153
24.3748
23.6817
23.6815
24.3742
25.8143
28.103
31.3733
35.7679
41.4121
48.385
56.6918
66.244
76.8504
88.2233
100
-300
-300
-300
-300
-300
-300
-300
-300
-300
-300
-300
-300
-300
-300
-300
-300
-300
-300
-300
-300
-300
-300
-300
-300
100
88.1922
76.8056
66.2185
56.731
48.5443
41.7548
36.3636
32.2963
29.429
27.6149
26.7089
26.5876
27.164
28.3972
30.2963
32.9194
36.363
40.7444
46.1757
52.7349
60.4377
69.2171
78.9136
89.2799
100
100
88.2242
76.8521
66.2463
56.6944
48.3877
41.4147
35.7701
31.3752
28.1044
25.8152
24.3745
23.6813
23.6809
24.3733
25.8131
28.1015
31.3714
35.7656
41.4096
48.3823
56.6893
66.2418
76.8487
88.2224
100
-300
-300
-300
-300
-300
-300
-300
-300
-300
-300
-300
-300
-300
-300
-300
-300
-300
-300
-300
-300
-300
-300
-300
-300
100
88.2079
76.8303
66.2396
56.7316
48.5045
41.6523
36.1745
31.9951
28.9897
27.0128
25.9232
25.6052
25.9833
27.0314
28.7748
31.2867
34.6758
39.0669
44.5753
51.278
59.1866
68.2263
78.2271
88.9287
100
100
88.2242
76.852
66.2463
56.6944
48.3876
41.4146
35.7701
31.3751
28.1043
25.8149
24.3741
23.6806
23.6798
24.3718
25.811
28.0988
31.368
35.7615
41.4049
48.3774
56.6845
66.2377
76.8457
88.2208
100
-300
-300
-300
-300
-300
-300
-300
-300
-300
-300
-300
-300
-300
-300
-300
-300
-300
-300
-300
-300
-300
-300
-300
-300
100
88.2147
76.8397
66.2441
56.7207
48.4652
41.5699
36.0327
31.7764
28.6763
26.5875
25.372
24.9192
25.1614
26.0823
27.7179
30.1518
33.501
37.8962
43.4558
50.2567
58.3079
67.5293
77.7437
88.6812
100
100
88.2242
76.852
66.2463
56.6944
48.3876
41.4146
35.77
31.3749
28.104
25.8144
24.3733
23.6793
23.678
24.3691
25.8073
28.0938
31.3617
35.754
41.3965
48.3685
56.6758
66.2301
76.84
88.2177
100
-300
-300
-300
-300
-300
-300
-300
-300
-300
-300
-300
-300
-300
-300
-300
-300
-300
-300
-300
-300
-300
-300
-300
-300
100
88.2156
76.8394
66.2382
56.7032
48.4283
41.5045
35.9281
31.6212
28.4584
26.2957
24.9966
24.4543
24.6061
25.442
27.0052
29.386
32.7072
37.1039
42.6967
49.563
57.71
67.0546
77.4141
88.5124
100
100
88.2242
76.852
66.2463
56.6944
48.3876
41.4145
35.7698
31.3746
28.1035
25.8136
24.372
23.6772
23.6748
24.3645
25.8008
28.0852
31.3508
35.7408
41.3815
48.3527
56.6603
66.2164
76.8298
88.2123
100
-300
-300
-300
-300
-300
-300
-300
-300
-300
-300
-300
-300
-300
-300
-300
-300
-300
-300
-300
-300
-300
-300
-300
-300
100
88.2118
76.8311
66.2236
56.6794
48.3916
41.4497
35.849
31.5107
28.3087
26.0993
24.7472
24.1476
24.2414
25.0224
26.5385
28.8844
32.1869
36.5838
42.1977
49.1063
57.3159
66.7413
77.1964
88.4008
100
100
88.2242
76.852
66.2462
56.6943
48.3875
41.4144
35.7696
31.3742
28.1027
25.8122
24.3697
23.6737
23.6694
24.3567
25.79
28.0707
31.3322
35.7183
41.3558
48.3252
56.6334
66.1926
76.8119
88.2027
100
-300
-300
-300
-300
-300
-300
-300
-300
-300
-300
-300
-300
-300
-300
-300
-300
-300
-300
-300
-300
-300
-300
-300
-300
100
88.2028
76.8135
66.1979
56.6459
48.3496
41.3974
35.7835
31.4278
28.2037
25.9672
24.5836
23.9495
24.0077
24.7548
26.2415
28.5654
31.8558
36.2527
41.8796
48.8148
57.0641
66.5409
77.0571
88.3294
100
100
88.2242
76.852
66.2462
56.6943
48.3874
41.4141
35.7692
31.3735
28.1014
25.8101
24.3662
23.6681
23.6609
24.3441
25.7722
28.0467
31.3015
35.6809
41.3127
48.2788
56.5874
66.1518
76.7812
88.1861
100
-300
-300
-300
-300
-300
-300
-300
-300
-300
-300
-300
-300
-300
-300
-300
-300
-300
-300
-300
-300
-300
-300
-300
-300
100
88.1864
76.7825
66.1554
56.5953
48.2935
41.3373
35.7189
31.357
28.1237
25.8745
24.4749
23.8222
23.8604
24.5879
26.0573
28.368
31.6512
36.048
41.6829
48.6344
56.9082
66.4168
76.9708
88.2851
100
100
88.2241
76.852
66.2462
56.6942
48.3872
41.4138
35.7686
31.3723
28.0994
25.8067
24.3607
23.6593
23.6474
24.3243
25.7441
28.0086
31.2521
35.6201
41.2422
48.2023
56.511
66.0834
76.7293
88.158
100
-300
-300
-300
-300
-300
-300
-300
-300
-300
-300
-300
-300
-300
-300
-300
-300
-300
-300
-300
-300
-300
-300
-300
-300
100
88.1583
76.7302
66.0857
56.5157
48.2108
41.2562
35.6417
31.2834
28.0519
25.8015
24.3976
23.7378
23.767
24.4848
25.9452
28.2489
31.5281
35.9251
41.5647
48.526
56.8145
66.3421
76.9188
88.2585
100
100
88.2241
76.852
66.2461
56.6941
48.387
41.4133
35.7677
31.3707
28.0965
25.8017
24.3524
23.6461
23.6271
24.2941
25.701
27.9496
31.175
35.5243
41.1298
48.0791
56.3866
65.9709
76.6432
88.1112
100
-300
-300
-300
-300
-300
-300
-300
-300
-300
-300
-300
-300
-300
-300
-300
-300
-300
-300
-300
-300
-300
-300
-300
-300
100
88.1113
76.6438
65.9723
56.3893
48.0839
41.1375
35.5361
31.1921
27.9732
25.7323
24.334
23.6763
23.7048
24.4201
25.8772
28.178
31.4557
35.8531
41.4958
48.4629
56.7599
66.2986
76.8886
88.2429
100
100
88.2241
76.8519
66.246
56.6939
48.3866
41.4127
35.7664
31.3683
28.0923
25.7945
24.3405
23.6269
23.5972
24.2494
25.6368
27.8609
31.0579
35.3773
40.9552
47.8852
56.1883
65.7892
76.5025
88.034
100
-300
-300
-300
-300
-300
-300
-300
-300
-300
-300
-300
-300
-300
-300
-300
-300
-300
-300
-300
-300
-300
-300
-300
-300
100
88.0341
76.5029
65.7899
56.1897
47.8878
40.9594
35.3836
31.0671
27.8735
25.6534
24.2706
23.6233
23.658
24.3763
25.8346
28.1356
31.4134
35.8117
41.4565
48.427
56.7289
66.274
76.8714
88.2341
100
100
88.2241
76.8519
66.2459
56.6937
48.3862
41.4117
35.7646
31.3651
28.0866
25.7845
24.3238
23.5999
23.555
24.1858
25.5443
27.732
30.8857
35.1581
40.6912
47.5872
55.8782
65.5002
76.2754
87.9079
100
-300
-300
-300
-300
-300
-300
-300
-300
-300
-300
-300
-300
-300
-300
-300
-300
-300
-300
-300
-300
-300
-300
-300
-300
100
87.908
76.2756
65.5006
55.8789
47.5885
40.6934
35.1614
30.8905
27.7385
25.5529
24.1967
23.5684
23.6159
24.3422
25.8052
28.1089
31.3884
35.788
41.4344
48.407
56.7118
66.2604
76.862
88.2293
100
100
88.2241
76.8518
66.2458
56.6934
48.3855
41.4105
35.7623
31.3608
28.0788
25.7711
24.3012
23.5632
23.4972
24.0979
25.4156
27.5505
30.6403
34.8411
40.3027
47.1399
55.4025
65.0468
75.9111
87.7023
100
-300
-300
-300
-300
-300
-300
-300
-300
-300
-300
-300
-300
-300
-300
-300
-300
-300
-300
-300
-300
-300
-300
-300
-300
100
87.7023
75.9112
65.047
55.403
47.1406
40.3038
34.8427
30.6427
27.5538
25.4199
24.1034
23.504
23.5712
24.3105
25.7815
28.09
31.3725
35.7741
41.4219
48.396
56.7025
66.253
76.8569
88.2267
100
100
88.224
76.8517
66.2456
56.693
48.3847
41.4089
35.7593
31.3552
28.0689
25.7538
24.2718
23.5151
23.421
23.9812
25.2428
27.3039
30.3019
34.3966
39.7469
46.4849
54.6868
64.3432
75.3277
87.3637
100
-300
-300
-300
-300
-300
-300
-300
-300
-300
-300
-300
-300
-300
-300
-300
-300
-300
-300
-300
-300
-300
-300
-300
-300
100
87.3637
75.3277
64.3433
54.687
46.4852
39.7475
34.3974
30.3031
27.3054
25.2449
23.9838
23.4243
23.519
24.2764
25.7588
28.0743
31.361
35.7651
41.4145
48.3899
56.6974
66.2491
76.8542
88.2253
100
100
88.224
76.8516
66.2454
56.6925
48.3838
41.407
35.7556
31.3484
28.0565
25.7322
24.2351
23.4545
23.3243
23.8317
25.0192
26.9808
29.8521
33.7947
38.977
45.5515
53.6311
63.2619
74.3883
86.7932
100
-300
-300
-300
-300
-300
-300
-300
-300
-300
-300
-300
-300
-300
-300
-300
-300
-300
-300
-300
-300
-300
-300
-300
-300
100
86.7932
74.3883
63.262
53.6312
45.5517
38.9772
33.7951
29.8526
26.9816
25.0202
23.8329
23.3259
23.4564
24.2373
25.7346
28.0591
31.3511
35.7584
41.4097
48.3862
56.6946
66.2471
76.8528
88.2246
100
100
88.224
76.8515
66.2451
56.6919
48.3826
41.4048
35.7513
31.3403
28.0418
25.7063
24.1908
23.3812
23.2064
23.6477
24.7412
26.5742
29.2771
33.0101
37.948
44.2632
52.1111
61.6173
72.8573
85.7864
100
-300
-300
-300
-300
-300
-300
-300
-300
-300
-300
-300
-300
-300
-300
-300
-300
-300
-300
-300
-300
-300
-300
-300
-300
100
85.7864
72.8573
61.6173
52.1111
44.2633
37.9481
33.0103
29.2773
26.5746
24.7417
23.6483
23.2071
23.382
24.1918
25.7074
28.043
31.3416
35.7526
41.406
48.3838
56.6929
66.2459
76.8521
88.2243
100
100
88.2239
76.8514
66.2448
56.6914
48.3814
41.4023
35.7464
31.3311
28.025
25.6765
24.1397
23.2958
23.0682
23.4306
24.41
26.084
28.5733
32.031
36.6304
42.5545
49.9934
59.1584
70.3235
83.8658
100
-300
-300
-300
-300
-300
-300
-300
-300
-300
-300
-300
-300
-300
-300
-300
-300
-300
-300
-300
-300
-300
-300
-300
-300
100
83.8658
70.3235
59.1584
49.9934
42.5546
36.6305
32.0311
28.5734
26.0841
24.4102
23.4308
23.0685
23.2962
24.1401
25.677
28.0255
31.3317
35.747
41.4028
48.3819
56.6918
66.2452
76.8517
88.2241
100
100
88.2239
76.8513
66.2446
56.6908
48.3801
41.3996
35.7411
31.3211
28.0065
25.6436
24.0829
23.2007
22.9132
23.1852
24.0326
25.5195
27.7521
30.8686
35.0285
40.4049
47.1875
55.6172
66.1161
79.7471
100
100
100
100
100
100
100
100
100
100
100
100
100
100
100
100
100
100
100
100
100
100
100
100
100
100
79.7471
66.1162
55.6172
47.1875
40.4049
35.0285
30.8686
27.7522
25.5196
24.0327
23.1854
22.9133
23.2008
24.0831
25.6438
28.0068
31.3213
35.7414
41.3998
48.3804
56.691
66.2448
76.8514
88.224
100
100
88.2239
76.8513
66.2445
56.6904
48.379
41.397
35.7358
31.3107
27.9873
25.609
24.0227
23.0991
22.7468
22.9204
23.6223
24.9008
26.8427
29.5639
33.1978
37.8831
43.7547
50.9375
59.5289
69.4708
79.7471
83.8658
85.7864
86.7932
87.3637
87.7022
87.9078
88.0338
88.1107
88.1571
88.1843
88.1993
88.2058
88.2058
88.1993
88.1843
88.1571
88.1107
88.0338
87.9078
87.7022
87.3637
86.7932
85.7864
83.8658
79.7471
69.4708
59.5289
50.9375
43.7547
37.8831
33.1978
29.5639
26.8427
24.9008
23.6224
22.9204
22.7469
23.0992
24.0228
25.6091
27.9874
31.3108
35.7359
41.3971
48.3791
56.6904
66.2446
76.8514
88.224
100
100
88.224
76.8515
66.2446
56.6902
48.3782
41.3949
35.7309
31.3007
27.9682
25.5742
23.9618
22.9956
22.5764
22.6475
23.1974
24.2562
25.8891
28.1855
31.246
35.1659
40.0151
45.8067
52.4356
59.5289
66.1161
70.3235
72.8572
74.3883
75.3276
75.911
76.2752
76.5021
76.6423
76.7276
76.7779
76.8056
76.8178
76.8178
76.8056
76.7779
76.7276
76.6423
76.5021
76.2752
75.911
75.3276
74.3883
72.8572
70.3235
66.1161
59.5289
52.4356
45.8067
40.0151
35.1659
31.246
28.1855
25.8891
24.2562
23.1974
22.6475
22.5764
22.9957
23.9618
25.5743
27.9682
31.3008
35.7309
41.3949
48.3783
56.6903
66.2447
76.8515
88.2241
100
100
88.2243
76.8521
66.2453
56.6909
48.3783
41.3937
35.7272
31.2921
27.9508
25.5415
23.9033
22.8953
22.4099
22.3797
22.7786
23.6186
24.9427
26.8138
29.3007
32.4602
36.314
40.8166
45.8067
50.9375
55.6172
59.1584
61.6172
63.2619
64.3432
65.0466
65.4999
65.7886
65.9698
66.0811
66.1473
66.184
66.2002
66.2002
66.184
66.1473
66.0811
65.9698
65.7886
65.4999
65.0466
64.3432
63.2619
61.6172
59.1584
55.6172
50.9375
45.8067
40.8166
36.314
32.4602
29.3007
26.8138
24.9428
23.6186
22.7786
22.3797
22.4099
22.8953
23.9033
25.5415
27.9508
31.2921
35.7272
41.3937
48.3783
56.6909
66.2453
76.8521
88.2244
100
100
88.225
76.8534
66.2471
56.6929
48.3802
41.3947
35.7259
31.2864
27.9369
25.5133
23.8509
22.8035
22.2558
22.1299
22.3862
23.0197
24.0526
25.5243
27.4768
29.9391
32.9059
36.314
40.0151
43.7547
47.1875
49.9934
52.1111
53.6311
54.6867
55.4024
55.8779
56.1876
56.3853
56.5084
56.5823
56.6234
56.6417
56.6417
56.6234
56.5823
56.5084
56.3853
56.1876
55.8779
55.4024
54.6867
53.6311
52.1111
49.9934
47.1875
43.7547
40.0151
36.314
32.9059
29.9391
27.4768
25.5243
24.0526
23.0197
22.3862
22.1299
22.2558
22.8035
23.8509
25.5133
27.9369
31.2864
35.7259
41.3947
48.3802
56.6929
66.2471
76.8534
88.225
100
100
88.2265
76.8561
66.2511
56.6977
48.3854
41.3995
35.7291
31.2859
27.9293
25.4929
23.8089
22.726
22.1221
21.91
22.0379
22.4858
23.2584
24.3751
25.8583
27.7185
29.9391
32.4602
35.1659
37.8831
40.4049
42.5545
44.2632
45.5515
46.4848
47.1397
47.5869
47.8845
48.0777
48.1996
48.2735
48.315
48.3335
48.3335
48.315
48.2735
48.1996
48.0777
47.8845
47.5869
47.1397
46.4848
45.5515
44.2632
42.5545
40.4049
37.8831
35.1659
32.4602
29.9391
27.7185
25.8583
24.3751
23.2584
22.4858
22.0379
21.91
22.1221
22.726
23.8089
25.4929
27.9293
31.2859
35.7291
41.3995
48.3854
56.6977
66.2511
76.8561
88.2265
100
100
88.2292
76.8616
66.2589
56.7076
48.3967
41.4114
35.7404
31.2946
27.9322
25.4852
23.7826
22.6692
22.0169
21.7304
21.7478
22.0366
22.5871
23.4037
24.4941
25.8583
27.4768
29.3007
31.246
33.1978
35.0285
36.6304
37.948
38.9769
39.7469
40.3025
40.6909
40.9546
41.1285
41.2395
41.3076
41.346
41.3633
41.3633
41.346
41.3076
41.2395
41.1285
40.9546
40.6909
40.3025
39.7469
38.9769
37.948
36.6304
35.0285
33.1978
31.246
29.3007
27.4768
25.8583
24.4941
23.4037
22.5871
22.0366
21.7478
21.7304
22.0169
22.6692
23.7826
25.4852
27.9322
31.2946
35.7404
41.4114
48.3967
56.7076
66.2589
76.8616
88.2292
100
100
88.2345
76.8719
66.2739
56.7266
48.419
41.436
35.7658
31.3189
27.9526
25.4973
23.7798
22.6413
21.949
21.6012
21.5276
21.6858
22.055
22.6283
23.4037
24.3751
25.5243
26.8138
28.1855
29.5639
30.8686
32.031
33.0101