# vtk DataFile Version 2.0
LBE two cylinders
ASCII
DATASET STRUCTURED_POINTS
DIMENSIONS 76 76 1
ASPECT_RATIO 1 1 1
ORIGIN 0 0 0
POINT_DATA 5776
SCALARS temp double 1
LOOKUP_TABLE default
100
100
100
100
100
100
100
100
100
100
100
100
100
100
100
100
100
100
100
100
100
100
100
100
100
100
-300
-300
-300
-300
-300
-300
-300
-300
-300
-300
-300
-300
-300
-300
100
100
100
100
100
100
100
100
100
100
100
100
100
100
100
100
100
100
100
100
100
100
100
100
100
100
-300
-300
-300
-300
-300
-300
-300
-300
-300
-300
100
98.9135
97.851
96.8354
95.8868
95.0219
94.2532
93.5896
93.0361
92.5945
92.2651
92.0466
91.9377
91.9377
92.0466
92.2651
92.5945
93.0361
93.5896
94.2532
95.0219
95.8868
96.8354
97.851
98.9135
100
-300
-300
-300
-300
-300
-300
-300
-300
-300
-300
-300
-300
-300
-300
100
98.9158
97.8555
96.842
95.8951
95.0316
94.264
93.6011
93.0478
92.6063
92.2764
92.0572
91.9475
91.9465
92.0543
92.2716
92.6
93.0405
93.5932
94.256
95.0239
95.8883
96.8364
97.8516
98.9138
100
-300
-300
-300
-300
-300
-300
-300
-300
-300
-300
100
97.8502
95.7481
93.7387
91.8618
90.1505
88.6297
87.3168
86.2215
85.3479
84.696
84.2637
84.0484
84.0484
84.2637
84.696
85.3479
86.2215
87.3168
88.6297
90.1505
91.8618
93.7387
95.7481
97.8502
100
-300
-300
-300
-300
-300
-300
-300
-300
-300
-300
-300
-300
-300
-300
100
97.8554
95.7583
93.7535
91.8806
90.1725
88.6542
87.3427
86.2481
85.3744
84.7217
84.2879
84.0706
84.0683
84.2811
84.7109
85.3603
86.2315
87.3247
88.6359
90.1551
91.8652
93.741
95.7495
97.8509
100
-300
-300
-300
-300
-300
-300
-300
-300
-300
-300
100
96.8321
93.7344
90.7734
88.0076
85.4857
83.2448
81.31
79.696
78.4087
77.4482
76.8111
76.4938
76.4938
76.8111
77.4482
78.4087
79.696
81.31
83.2448
85.4857
88.0076
90.7734
93.7344
96.8321
100
-300
-300
-300
-300
-300
-300
-300
-300
-300
-300
-300
-300
-300
-300
100
96.8415
93.7529
90.8001
88.0415
85.5255
83.289
81.357
79.7442
78.4567
77.4945
76.8548
76.5339
76.5297
76.8425
77.475
78.4311
79.7142
81.3244
83.2559
85.494
88.0136
90.7774
93.7369
96.8333
100
-300
-300
-300
-300
-300
-300
-300
-300
-300
-300
100
95.878
91.8475
87.9946
84.3959
81.1146
78.1987
75.6813
73.5812
71.9063
70.6565
69.8276
69.4147
69.4147
69.8276
70.6565
71.9063
73.5812
75.6813
78.1987
81.1146
84.3959
87.9946
91.8475
95.878
100
-300
-300
-300
-300
-300
-300
-300
-300
-300
-300
-300
-300
-300
-300
100
95.8938
91.8785
88.0396
84.453
81.1816
78.2732
75.7605
73.6625
71.9871
70.7346
69.9012
69.4823
69.4753
69.8805
70.7016
71.9439
73.6118
75.7054
78.2173
81.1284
84.4059
88.0014
91.8516
95.88
100
-300
-300
-300
-300
-300
-300
-300
-300
-300
-300
100
95.0031
90.1171
85.4465
81.0839
77.1061
73.5714
70.5197
67.9739
65.9435
64.4285
63.4237
62.9232
62.9232
63.4237
64.4285
65.9435
67.9739
70.5197
73.5714
77.1061
81.0839
85.4465
90.1171
95.0031
100
-300
-300
-300
-300
-300
-300
-300
-300
-300
-300
-300
-300
-300
-300
100
95.0289
90.1675
85.5196
81.1768
77.2152
73.6926
70.6486
68.1062
66.0752
64.5557
63.5435
63.0332
63.0217
63.5098
64.5019
66.0046
68.0234
70.5588
73.6014
77.1285
81.0999
85.4573
90.1237
95.0062
100
-300
-300
-300
-300
-300
-300
-300
-300
-300
-300
100
94.2179
88.5641
83.1596
78.1117
73.5089
69.4188
65.8876
62.9418
60.5925
58.8394
57.6767
57.0976
57.0976
57.6767
58.8394
60.5925
62.9418
65.8876
69.4188
73.5089
78.1117
83.1596
88.5641
94.2179
100
-300
-300
-300
-300
-300
-300
-300
-300
-300
-300
-300
-300
-300
-300
100
94.2589
88.6444
83.2759
78.2593
73.6822
69.6114
66.0925
63.1523
60.8019
59.0419
57.8674
57.2726
57.2543
57.8136
58.9559
60.6893
63.0203
65.9494
69.4661
73.5439
78.1367
83.1765
88.5745
94.2228
100
-300
-300
-300
-300
-300
-300
-300
-300
-300
-300
100
93.5283
87.2002
81.1511
75.5011
70.3494
65.7716
61.8192
58.5222
55.8927
53.9306
52.6293
51.9812
51.9812
52.6293
53.9306
55.8927
58.5222
61.8192
65.7716
70.3494
75.5011
81.1511
87.2002
93.5283
100
-300
-300
-300
-300
-300
-300
-300
-300
-300
-300
-300
-300
-300
-300
100
93.5921
87.3252
81.3323
75.7312
70.6196
66.0719
62.1389
58.8505
56.2194
54.2466
52.9268
52.2541
52.2254
52.8425
54.112
56.0433
58.6439
61.9149
65.8446
70.4033
75.5394
81.1769
87.2159
93.5357
100
-300
-300
-300
-300
-300
-300
-300
-300
-300
-300
100
92.9355
86.0277
79.4246
73.257
67.6335
62.6364
58.3221
54.7231
51.8528
49.711
48.2906
47.5831
47.5831
48.2906
49.711
51.8528
54.7231
58.3221
62.6364
67.6335
73.257
79.4246
86.0277
92.9355
100
-300
-300
-300
-300
-300
-300
-300
-300
-300
-300
-300
-300
-300
-300
100
93.033
86.2188
79.7016
73.6091
68.047
63.0961
58.8116
55.2259
52.3533
50.195
48.7463
48.0011
47.9569
48.6166
49.9882
52.0824
54.9083
58.4672
62.7468
67.7147
73.3145
79.463
86.051
92.9464
100
-300
-300
-300
-300
-300
-300
-300
-300
-300
-300
100
92.4367
85.0412
77.9719
71.3689
65.3484
59.9985
55.3797
51.5267
48.4538
46.1609
44.6402
43.8828
43.8828
44.6402
46.1609
48.4538
51.5267
55.3797
59.9985
65.3484
71.3689
77.9719
85.0412
92.4367
100
-300
-300
-300
-300
-300
-300
-300
-300
-300
-300
-300
-300
-300
-300
100
92.5831
85.3282
78.388
71.8979
65.9699
60.6896
56.1158
52.2831
49.2068
46.8891
45.3256
44.5113
44.4445
45.1296
46.5764
48.7974
51.8031
55.5957
60.1622
65.4682
71.4531
78.0279
85.075
92.4525
100
-300
-300
-300
-300
-300
-300
-300
-300
-300
-300
100
92.0259
84.2288
76.7755
69.8139
63.4664
57.826
52.9564
48.8943
45.6546
43.2372
41.634
40.8354
40.8354
41.634
43.2372
45.6546
48.8943
52.9564
57.826
63.4664
69.8139
76.7755
84.2288
92.0259
100
-300
-300
-300
-300
-300
-300
-300
-300
-300
-300
-300
-300
-300
-300
100
92.2419
84.6521
77.3894
70.5946
64.3841
58.8468
54.044
50.012
46.7674
44.3135
42.6468
41.7637
41.6644
42.3553
43.8487
46.1591
49.299
53.2716
58.0637
63.6394
69.9347
76.8552
84.2765
92.0481
100
-300
-300
-300
-300
-300
-300
-300
-300
-300
-300
100
91.6947
83.5737
75.8109
68.5602
61.9491
56.0745
51.0028
46.772
43.3978
40.8801
39.2103
38.3786
38.3786
39.2103
40.8801
43.3978
46.772
51.0028
56.0745
61.9491
68.5602
75.8109
83.5737
91.6947
100
-300
-300
-300
-300
-300
-300
-300
-300
-300
-300
-300
-300
-300
-300
100
92.0076
84.1871
76.7007
69.6921
63.2802
57.5558
52.5815
48.3951
45.0141
42.4432
40.6809
39.7256
39.5804
40.2547
41.7637
44.1251
47.3535
51.4537
56.4127
62.1935
68.7294
75.9215
83.6394
91.7251
100
-300
-300
-300
-300
-300
-300
-300
-300
-300
-300
100
91.4333
83.0567
75.0495
67.5707
60.7515
54.6921
49.4608
45.0969
41.6166
39.0197
37.2975
36.4396
36.4396
37.2975
39.0197
41.6166
45.0969
49.4608
54.6921
60.7515
67.5707
75.0495
83.0567
91.4333
100
-300
-300
-300
-300
-300
-300
-300
-300
-300
-300
-300
-300
-300
-300
100
91.8786
83.9299
76.3167
69.1833
62.6488
56.8044
51.7132
47.4133
43.9237
41.2508
39.3957
38.3602
38.1513
38.7826
40.2735
42.6455
45.9165
50.093
55.1632
61.0891
67.802
75.199
83.1444
91.4735
100
-300
-300
-300
-300
-300
-300
-300
-300
-300
-300
100
91.2313
82.6572
74.4612
66.806
59.8261
53.6238
48.2692
43.8025
40.2402
37.5821
35.8193
34.9412
34.9412
35.8193
37.5821
40.2402
43.8025
48.2692
53.6238
59.8261
66.806
74.4612
82.6572
91.2313
100
-300
-300
-300
-300
-300
-300
-300
-300
-300
-300
-300
-300
-300
-300
100
91.854
83.8786
76.2344
69.0637
62.4838
56.5845
51.428
47.0524
43.4777
40.7127
38.7621
37.6326
37.3366
37.8936
39.3288
41.6688
44.9352
49.1378
54.2659
60.2815
67.114
74.6572
82.7704
91.2825
100
-300
-300
-300
-300
-300
-300
-300
-300
-300
-300
100
91.0784
82.3548
74.016
66.2273
59.1258
52.8155
47.3676
42.8231
39.1987
36.4943
34.7008
33.8075
33.8075
34.7008
36.4943
39.1987
42.8231
47.3676
52.8155
59.1258
66.2273
74.016
82.3548
91.0784
100
-300
-300
-300
-300
-300
-300
-300
-300
-300
-300
-300
-300
-300
-300
100
91.9342
84.0339
76.4547
69.3342
62.7857
56.8955
51.7234
47.3067
43.6664
40.8139
38.759
37.5149
37.1017
37.5472
38.8839
41.1452
44.3582
48.5364
53.6711
59.7249
66.6258
74.2644
82.4953
91.1408
100
-300
-300
-300
-300
-300
-300
-300
-300
-300
-300
100
90.9651
82.1308
73.6861
65.7986
58.6069
52.2165
46.6995
42.0973
38.427
35.6883
33.8721
32.9674
32.9674
33.8721
35.6883
38.427
42.0973
46.6995
52.2165
58.6069
65.7986
73.6861
82.1308
90.9651
100
-300
-300
-300
-300
-300
-300
-300
-300
-300
-300
-300
-300
-300
-300
100
92.1211
84.3995
76.9831
70.0019
63.5626
57.7458
52.6073
48.1822
44.4918
41.5512
39.3762
37.9891
37.4207
37.7094
38.8983
41.0295
44.137
48.2391
53.3303
59.3741
66.2976
73.9885
82.2963
91.0366
100
-300
-300
-300
-300
-300
-300
-300
-300
-300
-300
100
90.8829
81.9682
73.4466
65.4874
58.2303
51.7818
46.2146
41.5706
37.867
35.1034
33.2707
32.3578
32.3578
33.2707
35.1034
37.867
41.5706
46.2146
51.7818
58.2303
65.4874
73.4466
81.9682
90.8829
100
-300
-300
-300
-300
-300
-300
-300
-300
-300
-300
-300
-300
-300
-300
100
92.4178
84.9819
77.8292
71.0795
64.8301
59.1534
54.0988
49.6974
45.9698
42.9346
40.616
39.0482
38.2765
38.3541
39.3378
41.2809
44.2264
48.1986
53.1961
59.184
66.089
73.7962
82.1498
90.9576
100
-300
-300
-300
-300
-300
-300
-300
-300
-300
-300
100
90.8245
81.8526
73.2764
65.2662
57.9626
51.4728
45.8699
41.1963
37.4689
34.6876
32.8432
31.9245
31.9245
32.8432
34.6876
37.4689
41.1963
45.8699
51.4728
57.9626
65.2662
73.2764
81.8526
90.8245
100
-300
-300
-300
-300
-300
-300
-300
-300
-300
-300
-300
-300
-300
-300
100
92.8283
85.7889
79.0052
72.5838
66.6098
61.1443
56.2272
51.8829
48.1291
44.9877
42.4928
40.6952
39.6602
39.4611
40.1725
41.8622
44.5836
48.3689
53.2213
59.1087
65.958
73.6523
82.0301
90.8902
100
-300
-300
-300
-300
-300
-300
-300
-300
-300
-300
100
90.7838
81.7721
73.1579
65.1121
57.7762
51.2576
45.63
40.9356
37.1917
34.3981
32.5455
31.6227
31.6227
32.5455
34.3981
37.1917
40.9356
45.63
51.2576
57.7762
65.1121
73.1579
81.7721
90.7838
100
-300
-300
-300
-300
-300
-300
-300
-300
-300
-300
-300
-300
-300
-300
100
93.3561
86.8281
80.5233
74.5326
68.9258
63.7495
59.03
54.7804
51.0118
47.7469
45.0321
42.9411
41.5676
41.0127
41.3738
42.7361
45.1657
48.7029
53.3569
59.0991
65.8584
73.5166
81.9072
90.8182
100
-300
-300
-300
-300
-300
-300
-300
-300
-300
-300
100
90.756
81.7172
73.077
65.007
57.649
51.1108
45.4662
40.7577
37.0026
34.2007
32.3425
31.4169
31.4169
32.3425
34.2007
37.0026
40.7577
45.4662
51.1108
57.649
65.007
73.077
81.7172
90.756
100
-300
-300
-300
-300
-300
-300
-300
-300
-300
-300
-300
-300
-300
-300
100
94.0035
88.1046
82.3927
76.9408
71.8007
67.0012
62.5499
58.4417
54.673
51.262
48.2687
45.801
43.9945
42.9885
42.9094
43.8622
45.926
49.1499
53.5493
59.1007
65.7368
73.3411
81.7437
90.7207
100
-300
-300
-300
-300
-300
-300
-300
-300
-300
-300
100
90.7374
81.6805
73.023
64.9368
57.564
51.0127
45.3568
40.6389
36.8762
34.0686
32.2067
31.2793
31.2793
32.2067
34.0686
36.8762
40.6389
45.3568
51.0127
57.564
64.9368
73.023
81.6805
90.7374
100
-300
-300
-300
-300
-300
-300
-300
-300
-300
-300
-300
-300
-300
-300
100
94.7698
89.618
84.615
79.8147
75.2497
70.9275
66.8313
62.9278
59.1844
55.6001
52.2468
49.2891
46.929
45.358
44.7371
45.1913
46.8112
49.6531
53.7383
59.05
65.5284
73.064
81.4888
90.5684
100
-300
-300
-300
-300
-300
-300
-300
-300
-300
-300
100
90.7253
81.6564
72.9876
64.8908
57.5083
50.9484
45.2851
40.561
36.7934
33.9822
32.1178
31.1892
31.1892
32.1178
33.9822
36.7934
40.561
45.2851
50.9484
57.5083
64.8908
72.9876
81.6564
90.7253
100
-300
-300
-300
-300
-300
-300
-300
-300
-300
-300
-300
-300
-300
-300
100
95.65
91.3595
87.1797
83.1465
79.2729
75.5444
71.915
68.3103
64.643
60.8579
57.0216
53.4112
50.3402
48.0705
46.7977
46.6618
47.7588
50.1483
53.8559
58.8731
65.1531
72.6027
81.0686
90.3149
100
-300
-300
-300
-300
-300
-300
-300
-300
-300
-300
100
90.7175
81.641
72.9648
64.8612
57.4725
50.9072
45.2391
40.511
36.7402
33.9267
32.0607
31.1313
31.1313
32.0607
33.9266
36.7402
40.511
45.2391
50.9071
57.4725
64.8612
72.9648
81.641
90.7175
100
-300
-300
-300
-300
-300
-300
-300
-300
-300
-300
-300
-300
-300
-300
100
96.6336
93.3088
90.0599
86.9065
83.846
80.845
77.829
74.6715
71.1921
67.1971
62.6623
58.1472
54.1599
51.0414
49.0072
48.1957
48.6964
50.5648
53.8278
58.4858
64.5115
71.8434
80.3687
89.8802
100
-300
-300
-300
-300
-300
-300
-300
-300
-300
-300
100
90.7125
81.6313
72.9505
64.8426
57.45
50.8812
45.2101
40.4795
36.7068
33.8917
32.0248
31.0949
31.0949
32.0248
33.8917
36.7068
40.4795
45.2101
50.8811
57.45
64.8426
72.9505
81.6312
90.7125
100
-300
-300
-300
-300
-300
-300
-300
-300
-300
-300
-300
-300
-300
-300
100
97.7034
95.4325
93.2074
91.0363
88.9081
86.7814
84.567
82.0949
79.0577
74.9499
69.2449
63.409
58.2489
54.1354
51.2509
49.6989
49.545
50.8307
53.5793
57.7987
63.486
70.6292
79.2006
89.1056
100
-300
-300
-300
-300
-300
-300
-300
-300
-300
-300
100
90.7095
81.6253
72.9417
64.8312
57.4361
50.8651
45.1922
40.4601
36.6861
33.8701
32.0026
31.0724
31.0724
32.0026
33.8701
36.6861
40.46
45.1922
50.8651
57.4361
64.8311
72.9416
81.6252
90.7095
100
-300
-300
-300
-300
-300
-300
-300
-300
-300
-300
-300
-300
-300
-300
100
98.8353
97.6828
96.5514
95.4432
94.3485
93.2374
92.0416
90.6098
88.5797
84.9712
76.7585
68.9284
62.3449
57.1514
53.3836
51.0673
50.2269
50.8823
53.0473
56.732
61.9532
68.7549
77.2456
87.6288
100
-300
-300
-300
-300
-300
-300
-300
-300
-300
-300
100
90.7077
81.6216
72.9364
64.8242
57.4277
50.8554
45.1814
40.4483
36.6736
33.8571
31.9892
31.0588
31.0588
31.9891
33.857
36.6735
40.4482
45.1813
50.8553
57.4276
64.8241
72.9362
81.6216
90.7076
100
-300
-300
-300
-300
-300
-300
-300
-300
-300
-300
-300
-300
-300
-300
100
100
100
100
100
100
100
100
100
100
100
84.4962
74.002
66.0132
59.8318
55.2483
52.2018
50.6785
50.6773
52.1982
55.2424
59.8237
66.0035
73.9917
84.4878
100
100
100
100
100
100
100
100
100
100
100
100
90.7066
81.6195
72.9332
64.8201
57.4227
50.8497
45.175
40.4414
36.6662
33.8493
31.9812
31.0507
31.0507
31.9811
33.8492
36.666
40.4411
45.1747
50.8494
57.4225
64.8198
72.933
81.6193
90.7065
100
-300
-300
-300
-300
-300
-300
-300
-300
-300
-300
-300
-300
-300
-300
-300
-300
-300
-300
-300
-300
-300
-300
-300
-300
100
87.6293
77.2446
68.7512
61.9462
56.7217
53.0336
50.8656
50.2073
51.0452
53.3594
57.1255
62.318
68.9016
76.7331
84.9491
88.5594
90.5909
92.0243
93.2219
94.3351
95.4321
96.5428
97.677
98.8324
100
100
90.706
81.6182
72.9313
64.8177
57.4198
50.8463
45.1712
40.4373
36.6618
33.8447
31.9765
31.0459
31.0458
31.9763
33.8445
36.6615
40.4368
45.1707
50.8458
57.4193
64.8172
72.931
81.618
90.7058
100
-300
-300
-300
-300
-300
-300
-300
-300
-300
-300
-300
-300
-300
-300
-300
-300
-300
-300
-300
-300
-300
-300
-300
-300
100
89.1004
79.1896
70.6122
63.4629
57.7698
53.545
50.7918
49.502
49.6525
51.2019
54.0847
58.1973
63.3574
69.1947
74.9019
79.0123
82.0524
84.5281
86.7465
88.8779
91.0114
93.1882
95.4194
97.6968
100
100
90.7056
81.6175
72.9303
64.8163
57.4182
50.8444
45.1691
40.4349
36.6593
33.8421
31.9737
31.043
31.0429
31.9734
33.8415
36.6586
40.4341
45.1681
50.8434
57.4172
64.8155
72.9296
81.617
90.7053
100
-300
-300
-300
-300
-300
-300
-300
-300
-300
-300
-300
-300
-300
-300
-300
-300
-300
-300
-300
-300
-300
-300
-300
-300
100
89.8688
80.3458
71.8094
64.4669
58.4314
53.7646
50.4941
48.6193
48.1135
48.9212
50.9529
54.0702
58.0576
62.5742
67.1119
71.1108
74.5953
77.7589
80.7822
83.7916
86.8616
90.0253
93.2854
96.6218
100
100
90.7054
81.6171
72.9297
64.8155
57.4172
50.8433
45.1678
40.4335
36.6578
33.8404
31.972
31.0412
31.041
31.9714
33.8395
36.6566
40.4321
45.1662
50.8416
57.4156
64.814
72.9284
81.6162
90.7049
100
-300
-300
-300
-300
-300
-300
-300
-300
-300
-300
-300
-300
-300
-300
-300
-300
-300
-300
-300
-300
-300
-300
-300
-300
100
90.2949
81.029
72.5442
65.0769
58.7809
53.7494
50.0294
47.6298
46.5247
46.6546
47.9235
50.1914
53.2626
56.8752
60.7158
64.5072
68.1827
71.7976
75.4392
79.1818
83.0712
87.1218
91.3202
95.6302
100
100
90.7053
81.6169
72.9293
64.8151
57.4166
50.8426
45.167
40.4326
36.6568
33.8393
31.9707
31.0398
31.0395
31.9698
33.8378
36.6547
40.4301
45.1642
50.8397
57.4138
64.8125
72.9272
81.6153
90.7045
100
-300
-300
-300
-300
-300
-300
-300
-300
-300
-300
-300
-300
-300
-300
-300
-300
-300
-300
-300
-300
-300
-300
-300
-300
100
90.5355
81.4239
72.9685
65.4044
58.9
53.5654
49.4606
46.6024
44.9697
44.5059
45.1208
46.6888
49.0493
52.0105
55.3706
58.9648
62.7215
66.6415
70.7573
75.1024
79.693
84.5213
89.5544
94.7376
100
100
90.7052
81.6167
72.9291
64.8148
57.4163
50.8422
45.1665
40.432
36.656
33.8384
31.9696
31.0385
31.0379
31.9679
33.8357
36.6524
40.4277
45.1617
50.8371
57.4114
64.8103
72.9254
81.6141
90.7038
100
-300
-300
-300
-300
-300
-300
-300
-300
-300
-300
-300
-300
-300
-300
-300
-300
-300
-300
-300
-300
-300
-300
-300
-300
100
90.6686
81.6408
73.1896
65.5402
58.8632
53.2757
48.8454
45.5959
43.5119
42.5443
42.6139
43.6154
45.4224
47.8957
50.8996
54.3263
58.1159
62.2501
66.7325
71.568
76.7485
82.2448
88.0042
93.9527
100
100
90.7052
81.6166
72.929
64.8146
57.416
50.8418
45.166
40.4313
36.6552
33.8373
31.9682
31.0368
31.0359
31.9655
33.8328
36.6492
40.4241
45.1579
50.8333
57.4077
64.807
72.9227
81.6122
90.7028
100
-300
-300
-300
-300
-300
-300
-300
-300
-300
-300
-300
-300
-300
-300
-300
-300
-300
-300
-300
-300
-300
-300
-300
-300
100
90.7373
81.7474
73.2815
65.5534
58.7308
52.9326
48.2308
44.6541
42.1936
40.8084
40.4326
40.9807
42.3551
44.4547
47.186
50.4752
54.2762
58.566
63.3336
68.5656
74.2351
80.2944
86.6726
93.2775
100
100
90.7051
81.6166
72.9288
64.8144
57.4157
50.8414
45.1654
40.4305
36.6541
33.8359
31.9663
31.0344
31.0328
31.9618
33.8284
36.6441
40.4185
45.152
50.8273
57.4019
64.8018
72.9185
81.6091
90.7012
100
-300
-300
-300
-300
-300
-300
-300
-300
-300
-300
-300
-300
-300
-300
-300
-300
-300
-300
-300
-300
-300
-300
-300
-300
100
90.767
81.7867
73.2943
65.4937
58.5481
52.5759
47.651
43.8059
41.0374
39.3133
38.5797
38.7685
39.8051
41.616
44.1359
47.3143
51.1171
55.5227
60.5129
66.0629
72.132
78.6576
85.5528
92.7089
100
100
90.7051
81.6165
72.9287
64.8141
57.4153
50.8408
45.1646
40.4294
36.6525
33.8337
31.9635
31.0307
31.0282
31.9561
33.8217
36.6363
40.4099
45.1427
50.8179
57.3928
64.7936
72.9116
81.6042
90.6987
100
-300
-300
-300
-300
-300
-300
-300
-300
-300
-300
-300
-300
-300
-300
-300
-300
-300
-300
-300
-300
-300
-300
-300
-300
100
90.7734
81.7859
73.2612
65.3952
58.3466
52.2322
47.1268
43.0656
40.0503
38.0561
37.0395
36.9468
37.7211
39.3088
41.6649
44.7553
48.5561
53.0488
58.2125
64.0152
70.4063
77.3113
84.6302
92.24
100
100
90.705
81.6163
72.9285
64.8138
57.4148
50.84
45.1635
40.4278
36.6502
33.8306
31.9593
31.0252
31.0211
31.9474
33.8113
36.6243
40.3964
45.1283
50.8031
57.3785
64.7806
72.9009
81.5965
90.6947
100
-300
-300
-300
-300
-300
-300
-300
-300
-300
-300
-300
-300
-300
-300
-300
-300
-300
-300
-300
-300
-300
-300
-300
-300
100
90.7662
81.7621
73.2033
65.2796
58.1457
51.9169
46.6679
42.4361
39.2268
37.0213
35.7847
35.4744
36.0468
37.4634
39.6934
42.7151
46.5127
51.0713
56.3694
62.3706
69.0172
76.2255
83.8851
91.861
100
100
90.7049
81.6162
72.9282
64.8133
57.4141
50.8389
45.1618
40.4254
36.6468
33.8259
31.9529
31.0169
31.0106
31.9343
33.7955
36.606
40.3759
45.1062
50.7803
57.3563
64.7604
72.8841
81.5845
90.6884
100
-300
-300
-300
-300
-300
-300
-300
-300
-300
-300
-300
-300
-300
-300
-300
-300
-300
-300
-300
-300
-300
-300
-300
-300
100
90.7508
81.725
73.1326
65.1588
57.9554
51.636
46.275
41.911
38.5524
36.1851
34.7806
34.3048
34.7243
36.0111
38.1454
41.1145
44.909
49.5176
54.9189
61.074
67.9202
75.3669
83.2952
91.5608
100
100
90.7048
81.6159
72.9278
64.8126
57.413
50.8373
45.1594
40.4219
36.6419
33.819
31.9437
31.0047
30.9949
31.9148
33.772
36.5785
40.3449
45.0727
50.7458
57.3224
64.7294
72.8583
81.566
90.6787
100
-300
-300
-300
-300
-300
-300
-300
-300
-300
-300
-300
-300
-300
-300
-300
-300
-300
-300
-300
-300
-300
-300
-300
-300
100
90.7299
81.6792
73.0544
65.0374
57.7779
51.3878
45.9413
41.4776
38.0071
35.5187
33.9891
33.3903
33.696
34.8865
36.9496
39.8794
43.6718
48.3182
53.798
60.0708
67.0703
74.701
82.8374
91.3276
100
100
90.7047
81.6156
72.9272
64.8117
57.4115
50.835
45.156
40.4169
36.6348
33.8092
31.9304
30.987
30.9722
31.8864
33.7375
36.5381
40.2991
45.0229
50.694
57.2715
64.6827
72.8193
81.5378
90.6639
100
-300
-300
-300
-300
-300
-300
-300
-300
-300
-300
-300
-300
-300
-300
-300
-300
-300
-300
-300
-300
-300
-300
-300
-300
100
90.7041
81.6255
72.9687
64.914
57.6092
51.165
45.6551
41.1186
37.567
34.9913
33.3715
32.6839
32.9076
34.0286
36.0403
38.9419
42.7333
47.4084
52.9473
59.3088
66.4243
74.1944
82.4888
91.15
100
100
90.7045
81.6152
72.9264
64.8104
57.4095
50.8319
45.1513
40.41
36.6249
33.7954
31.9116
30.9621
30.9399
31.8458
33.688
36.4795
40.2324
44.9499
50.6177
57.196
64.613
72.7607
81.4954
90.6416
100
-300
-300
-300
-300
-300
-300
-300
-300
-300
-300
-300
-300
-300
-300
-300
-300
-300
-300
-300
-300
-300
-300
-300
-300
100
90.672
81.5611
72.8713
64.7822
57.4405
50.9558
45.4008
40.8139
37.2068
34.5716
32.8902
32.1417
32.3091
33.3821
35.3585
38.2412
42.0331
46.7301
52.3131
58.7406
65.9423
73.8163
82.2285
91.0174
100
100
90.7042
81.6146
72.9253
64.8087
57.4067
50.8276
45.1449
40.4006
36.6114
33.7765
31.8856
30.9274
30.8949
31.7888
33.618
36.3963
40.1369
44.8446
50.5068
57.0856
64.5103
72.6739
81.4323
90.6083
100
-300
-300
-300
-300
-300
-300
-300
-300
-300
-300
-300
-300
-300
-300
-300
-300
-300
-300
-300
-300
-300
-300
-300
-300
100
90.6306
81.48
72.7536
64.6311
57.2586
50.7445
45.1598
40.5417
36.9008
34.2295
32.5102
31.7239
31.8557
32.8985
34.8528
37.7243
41.5183
46.2325
51.8484
58.3244
65.5894
73.5393
82.0379
90.9202
100
100
90.7039
81.6138
72.9239
64.8064
57.4031
50.822
45.1364
40.3881
36.5933
33.7509
31.8505
30.8803
30.8332
31.7103
33.5209
36.28
40.0025
44.6951
50.348
56.9259
64.3607
72.5465
81.339
90.559
100
-300
-300
-300
-300
-300
-300
-300
-300
-300
-300
-300
-300
-300
-300
-300
-300
-300
-300
-300
-300
-300
-300
-300
-300
100
90.5748
81.3728
72.6024
64.4449
57.0458
50.5117
44.9111
40.2788
36.6236
33.9364
32.1996
31.3949
31.5088
32.5359
34.4792
37.3463
41.1444
45.8725
51.5132
58.0247
65.3354
73.3401
81.9008
90.8503
100
100
90.7034
81.6128
72.9222
64.8034
57.3984
50.8147
45.1253
40.3717
36.5696
33.7173
31.804
30.8175
30.7505
31.6043
33.3889
36.1206
39.8164
44.4862
50.1238
56.6982
64.1449
72.3609
81.2021
90.4861
100
-300
-300
-300
-300
-300
-300
-300
-300
-300
-300
-300
-300
-300
-300
-300
-300
-300
-300
-300
-300
-300
-300
-300
-300
100
90.4971
81.2254
72.3993
64.2023
56.7794
50.2343
44.6313
40.0016
36.3502
33.6661
31.9303
31.1244
31.2355
32.2597
34.2014
37.0701
40.8745
45.6149
51.2745
57.812
65.1555
73.1992
81.8039
90.801
100
100
90.7029
81.6115
72.9199
64.7997
57.3924
50.8054
45.1113
40.3507
36.5391
33.674
31.7437
30.7356
30.6421
31.4643
33.213
35.9061
39.5635
44.1989
49.8118
56.377
63.8366
72.0924
81.0019
90.3788
100
-300
-300
-300
-300
-300
-300
-300
-300
-300
-300
-300
-300
-300
-300
-300
-300
-300
-300
-300
-300
-300
-300
-300
-300
100
90.3862
81.0176
72.1182
63.8749
56.431
49.8848
44.2946
39.6852
36.0568
33.3945
31.6775
30.8864
31.0087
32.0413
33.9901
36.866
40.6792
45.4311
51.1059
57.6628
65.0299
73.1011
81.7366
90.7667
100
100
90.7022
81.61
72.9172
64.7951
57.3851
50.794
45.0938
40.3247
36.501
33.6194
31.6674
30.6313
30.5028
31.283
32.9833
35.6232
39.2259
43.8105
49.3836
55.9293
63.3997
71.7056
80.7091
90.22
100
-300
-300
-300
-300
-300
-300
-300
-300
-300
-300
-300
-300
-300
-300
-300
-300
-300
-300
-300
-300
-300
-300
-300
-300
100
90.2249
80.7194
71.7225
63.4247
55.9644
49.431
43.8724
39.3044
35.7202
33.1
31.42
30.6597
30.8065
31.8583
33.8222
36.7106
40.5354
45.299
50.9869
57.5587
64.943
73.0336
81.6903
90.7432
100
100
90.7014
81.6083
72.914
64.7898
57.3764
50.7803
45.0727
40.293
36.4544
33.5524
31.5731
30.5015
30.3283
31.0538
32.6899
35.2578
38.7842
43.2947
48.8051
55.3126
62.7849
71.149
80.2788
89.9829
100
-300
-300
-300
-300
-300
-300
-300
-300
-300
-300
-300
-300
-300
-300
-300
-300
-300
-300
-300
-300
-300
-300
-300
-300
100
89.986
80.2855
71.1599
62.8009
55.335
48.8353
43.3339
38.8339
35.319
32.7636
31.1402
30.4271
30.6119
31.6933
33.6801
36.5865
40.4257
45.2021
50.9019
57.4859
64.883
72.9874
81.6589
90.7273
100
100
90.7005
81.6063
72.9104
64.7836
57.3663
50.7643
45.0479
40.2554
36.3989
33.472
31.4592
30.3438
30.1145
30.7707
32.3238
34.7963
38.2185
42.6228
48.0366
54.474
61.9259
70.3478
79.6401
89.6215
100
-300
-300
-300
-300
-300
-300
-300
-300
-300
-300
-300
-300
-300
-300
-300
-300
-300
-300
-300
-300
-300
-300
-300
-300
100
89.6235
79.6443
70.3546
61.936
54.488
48.0554
42.6472
38.2493
34.8343
32.3695
30.8243
30.1758
30.4121
31.5337
33.5511
36.4806
40.3376
45.128
50.8396
57.4341
64.8413
72.9558
81.6377
90.7166
100
100
90.6996
81.6041
72.9064
64.7768
57.355
50.7462
45.0196
40.2123
36.3345
33.3783
31.3255
30.1572
29.8596
30.43
31.8784
34.2277
37.5109
41.7669
47.0352
53.3505
60.7356
69.1916
78.6755
89.0513
100
-300
-300
-300
-300
-300
-300
-300
-300
-300
-300
-300
-300
-300
-300
-300
-300
-300
-300
-300
-300
-300
-300
-300
-300
100
89.0525
78.6781
69.1958
60.7418
53.3591
47.0467
41.7818
37.5298
34.2509
31.9062
30.4625
29.8968
30.1987
31.3708
33.4263
36.3842
40.2622
45.0683
50.792
57.3963
64.8119
72.9341
81.6232
90.7094
100
100
90.6987
81.602
72.9024
64.7696
57.3429
50.7265
44.9884
40.1641
36.2622
33.272
31.1728
29.9423
29.5637
30.0308
31.3512
33.5462
36.6495
40.7045
45.7613
51.8748
59.1055
67.5203
77.1831
88.0976
100
-300
-300
-300
-300
-300
-300
-300
-300
-300
-300
-300
-300
-300
-300
-300
-300
-300
-300
-300
-300
-300
-300
-300
-300
100
88.0984
77.1846
67.5229
59.1093
51.8799
45.7682
40.7135
36.6608
33.56
31.3678
30.0503
29.5859
29.9671
31.1998
33.3006
36.2918
40.194
45.0175
50.7538
57.3676
64.7906
72.9189
81.6134
90.7046
100
100
90.698
81.6002
72.8986
64.7627
57.3308
50.706
44.9553
40.1124
36.1834
33.1552
31.0035
29.7022
29.2302
29.5769
30.7455
32.7535
35.6325
39.4259
44.1885
49.989
56.919
65.1169
74.8098
86.3524
100
-300
-300
-300
-300
-300
-300
-300
-300
-300
-300
-300
-300
-300
-300
-300
-300
-300
-300
-300
-300
-300
-300
-300
-300
100
86.3529
74.8108
65.1184
56.9212
49.992
44.1926
39.4312
35.6391
32.7616
30.7552
29.5883
29.2432
29.7168
31.0193
33.172
36.2008
40.1299
44.9724
50.722
57.3452
64.775
72.9083
81.6069
90.7014
100
100
90.6976
81.599
72.8959
64.7568
57.3196
50.6863
44.9222
40.0592
36.1011
33.0313
30.822
29.4424
28.8662
29.077
30.0718
31.8621
34.473
37.9425
42.3206
47.6728
54.0936
61.7455
70.9766
82.7162
100
100
100
100
100
100
100
100
100
100
100
100
100
100
100
100
100
100
100
100
100
100
100
100
100
100
82.7164
70.9772
61.7464
54.0949
47.6746
42.3229
37.9455
34.4768
31.8667
30.0775
29.0836
28.8737
29.4508
30.8311
33.041
36.1111
40.0693
44.932
50.6955
57.3279
64.7639
72.9014
81.6029
90.6996
100
100
90.6979
81.5992
72.895
64.7534
57.3112
50.6693
44.8916
40.0079
36.0191
32.9055
30.6349
29.1713
28.4825
28.5452
29.3487
30.8957
33.2018
36.2936
40.2061
44.9821
50.6736
57.3446
65.063
73.7943
82.7161
86.3524
88.0975
89.051
89.6211
89.9821
90.2186
90.3764
90.4822
90.5525
90.5979
90.6249
90.6375
90.6375
90.6249
90.5979
90.5525
90.4822
90.3764
90.2186
89.9821
89.6211
89.051
88.0975
86.3524
82.7162
73.7945
65.0633
57.3451
50.6744
44.9831
40.2074
36.2953
33.204
30.8983
29.3519
28.5489
28.4867
29.176
30.64
32.911
36.0248
40.0136
44.8972
50.6745
57.3159
64.7574
72.8982
81.6014
90.699
100
100
90.6994
81.6017
72.8976
64.7543
57.308
50.6582
44.8673
39.9629
35.9431
32.7846
30.4506
28.9
28.0936
28.0006
28.6015
29.8888
31.8661
34.5451
37.941
42.0667
46.9231
52.4806
58.631
65.063
70.9765
74.8097
77.1828
78.675
79.6392
80.2773
80.7064
80.9974
81.1946
81.3266
81.4121
81.4633
81.4871
81.4871
81.4633
81.4121
81.3266
81.1946
80.9974
80.7064
80.2773
79.6392
78.675
77.1828
74.8097
70.9766
65.0631
58.6312
52.4809
46.9235
42.0672
37.9418
34.546
31.8673
29.8903
28.6033
28.0027
28.0959
28.9026
30.4535
32.7876
35.9462
39.966
44.8704
50.6611
57.3106
64.7566
72.8993
81.603
90.7
100
100
90.7028
81.608
72.9057
64.7625
57.3136
50.6573
44.8544
39.9303
35.8803
32.6774
30.2804
28.6422
27.7172
27.4665
27.8611
28.883
30.5232
32.7781
35.6439
39.1074
43.1336
47.6443
52.4805
57.3446
61.7454
65.1167
67.5199
69.1909
70.3465
71.1468
71.7018
72.0861
72.3503
72.529
72.6457
72.7158
72.7486
72.7486
72.7158
72.6457
72.529
72.3503
72.0861
71.7018
71.1468
70.3465
69.1909
67.5199
65.1167
61.7454
57.3446
52.4807
47.6445
43.1339
39.1077
35.6443
32.7787
30.5239
28.8838
27.8621
27.4676
27.7185
28.6436
30.2819
32.6791
35.882
39.932
44.8561
50.6589
57.315
64.7637
72.9067
81.6087
90.7032
100
100
90.7092
81.6202
72.9225
64.7821
57.333
50.6726
44.86
39.9184
35.8403
32.5953
30.1375
28.4145
27.3738
26.9688
27.1615
27.9233
29.2336
31.0754
33.4297
36.2659
39.5312
43.1336
46.9231
50.6736
54.0935
56.9188
59.1051
60.7347
61.9244
62.7822
63.3951
63.8289
64.132
64.3395
64.4762
64.5587
64.5974
64.5974
64.5587
64.4762
64.3395
64.132
63.8289
63.3951
62.7822
61.9244
60.7347
59.1051
56.9188
54.0935
50.6736
46.9231
43.1337
39.5313
36.2661
33.4299
31.0757
29.2339
27.9237
27.162
26.9694
27.3745
28.4153
30.1384
32.5962
35.8413
39.9193
44.8609
50.6735
57.3338
64.7827
72.923
81.6205
90.7094
100
100
90.72
81.6412
72.9523
64.8187
57.3734
50.7126
44.8938
39.9382
35.8358
32.5525
30.0386
28.2361
27.0865
26.5358
26.5376
27.0542
28.0547
29.5118
31.3955
33.6663
36.2659
39.1073
42.0666
44.9821
47.6727
49.9887
51.8742
53.3495
54.4722
55.3096
55.9242
56.3684
56.6839
56.9025
57.0478
57.1361
57.1778
57.1778
57.1361
57.0478
56.9025
56.6839
56.3684
55.9242
55.3096
54.4722
53.3495
51.8742
49.9887
47.6727
44.9821
42.0667
39.1074
36.266
33.6664
31.3956
29.5119
28.0549
27.0544
26.5379
26.5361
27.0868
28.2365
30.039
32.553
35.8362
39.9387
44.8943
50.7131
57.3738
64.819
72.9526
81.6414
90.7201
100
100
90.7373
81.6751
73.0013
64.8805
57.4446
50.7887
44.9688
40.0043
35.8827
32.567
30.0034
28.1295
26.8809
26.1973
26.025
26.3184
27.0385
28.15
29.6168
31.3955
33.4296
35.6438
37.941
40.206
42.3204
44.1882
45.7607
47.0342
48.0348
48.802
49.3783
49.8028
50.1089
50.3237
50.4678
50.5559
50.5976
50.5976
50.5559
50.4678
50.3237
50.1089
49.8028
49.3783
48.802
48.0348
47.0342
45.7607
44.1882
42.3204
40.206
37.941
35.6439
33.4297
31.3955
29.6168
28.1501
27.0386
26.3185
26.0252
26.1975
26.8811
28.1297
30.0037
32.5673
35.883
40.0045
44.9691
50.7889
57.4448
64.8806
73.0015
81.6752
90.7374
100
100
90.764
81.7276
73.0778
64.9781
57.5597
50.9162
45.1024
40.1359
36.0022
32.6615
30.0568
28.1214
26.7864
25.9858
25.6598
25.7565
26.2307
27.0418
28.15
29.5118
31.0754
32.7781
34.545
36.2935
37.9423
39.4256
40.704
41.7659
42.621
43.2916
43.8053
44.1901
44.4715
44.6712