# vtk DataFile Version 2.0
LBE two cylinders
ASCII
DATASET STRUCTURED_POINTS
DIMENSIONS 76 76 1
ASPECT_RATIO 1 1 1
ORIGIN 0 0 0
POINT_DATA 5776
SCALARS temp double 1
LOOKUP_TABLE default
100
100
100
100
100
100
100
100
100
100
100
100
100
100
100
100
100
100
100
100
100
100
100
100
100
100
-300
-300
-300
-300
-300
-300
-300
-300
-300
-300
-300
-300
-300
-300
100
100
100
100
100
100
100
100
100
100
100
100
100
100
100
100
100
100
100
100
100
100
100
100
100
100
-300
-300
-300
-300
-300
-300
-300
-300
-300
-300
100
98.8211
97.6702
96.5735
95.5539
94.6296
93.8139
93.115
92.5365
92.0787
91.7395
91.5157
91.4046
91.4046
91.5157
91.7395
92.0787
92.5365
93.115
93.8139
94.6296
95.5539
96.5735
97.6702
98.8211
100
-300
-300
-300
-300
-300
-300
-300
-300
-300
-300
-300
-300
-300
-300
100
98.8226
97.6732
96.5778
95.5592
94.6358
93.8208
93.1223
92.544
92.0862
91.7466
91.5223
91.4107
91.41
91.5203
91.7434
92.082
92.5391
93.117
93.8154
94.6307
95.5547
96.5741
97.6706
98.8213
100
-300
-300
-300
-300
-300
-300
-300
-300
-300
-300
100
97.6696
95.3946
93.2267
91.2111
89.3839
87.7715
86.3899
85.2465
84.3416
83.6709
83.2286
83.009
83.009
83.2286
83.6709
84.3416
85.2465
86.3899
87.7715
89.3839
91.2111
93.2267
95.3946
97.6696
100
-300
-300
-300
-300
-300
-300
-300
-300
-300
-300
-300
-300
-300
-300
100
97.6731
95.4014
93.2365
91.2235
89.3984
87.7875
86.4069
85.2639
84.3587
83.6874
83.2439
83.023
83.0214
83.2393
83.68
84.349
85.2525
86.3946
87.775
89.3865
91.2129
93.2279
95.3953
97.67
100
-300
-300
-300
-300
-300
-300
-300
-300
-300
-300
100
96.571
93.2235
90.0336
87.0677
84.3792
82.0066
79.9738
78.2914
76.9598
75.973
75.3222
74.9991
74.9991
75.3222
75.973
76.9598
78.2914
79.9738
82.0066
84.3792
87.0677
90.0336
93.2235
96.571
100
-300
-300
-300
-300
-300
-300
-300
-300
-300
-300
-300
-300
-300
-300
100
96.5775
93.2361
90.0518
87.0907
84.4061
82.0364
80.0054
78.3236
76.9917
76.0036
75.3507
75.0251
75.0221
75.3421
75.9898
76.9736
78.3024
79.9824
82.0131
84.384
87.071
90.0358
93.2248
96.5717
100
-300
-300
-300
-300
-300
-300
-300
-300
-300
-300
100
95.5472
91.2001
87.0578
83.2064
79.7152
76.6342
73.9945
71.8098
70.0807
68.7993
67.954
67.5345
67.5345
67.954
68.7993
70.0807
71.8098
73.9945
76.6342
79.7152
83.2064
87.0578
91.2001
95.5472
100
-300
-300
-300
-300
-300
-300
-300
-300
-300
-300
-300
-300
-300
-300
100
95.5584
91.222
87.0894
83.2464
79.762
76.686
74.0493
71.8657
70.136
68.8524
68.0037
67.5797
67.5746
67.9887
68.8284
70.1046
71.8289
74.0094
76.6455
79.7234
83.2121
87.0616
91.2025
95.5483
100
-300
-300
-300
-300
-300
-300
-300
-300
-300
-300
100
94.6152
89.3582
84.3488
79.6913
75.4693
71.7436
68.5513
65.9094
63.8184
62.2688
61.2468
60.7394
60.7394
61.2468
62.2688
63.8184
65.9094
68.5513
71.7436
75.4693
79.6913
84.3488
89.3582
94.6152
100
-300
-300
-300
-300
-300
-300
-300
-300
-300
-300
-300
-300
-300
-300
100
94.6339
89.3949
84.4019
79.7585
75.548
71.8306
68.6435
66.0035
63.9115
62.3582
61.3303
60.8154
60.8068
61.305
62.3179
63.8586
65.9415
68.5762
71.7623
75.483
79.7008
84.3551
89.362
94.617
100
-300
-300
-300
-300
-300
-300
-300
-300
-300
-300
100
93.7863
87.7202
81.9398
76.5654
71.6937
67.3945
63.711
60.6624
58.2497
56.4617
55.2823
54.6969
54.6969
55.2823
56.4617
58.2497
60.6624
63.711
67.3945
71.6937
76.5654
81.9398
87.7202
93.7863
100
-300
-300
-300
-300
-300
-300
-300
-300
-300
-300
-300
-300
-300
-300
100
93.8171
87.7804
82.0268
76.6757
71.8228
67.5374
63.8624
60.8171
58.4027
56.6086
55.4195
54.8218
54.8076
55.3779
56.5421
58.3156
60.7149
63.7516
67.425
71.7158
76.5808
81.95
87.7263
93.7892
100
-300
-300
-300
-300
-300
-300
-300
-300
-300
-300
100
93.0663
86.2972
79.8469
73.8497
68.4135
63.6162
59.5059
56.1042
53.412
51.4168
50.1008
49.4477
49.4477
50.1008
51.4168
53.412
56.1042
59.5059
63.6162
68.4135
73.8497
79.8469
86.2972
93.0663
100
-300
-300
-300
-300
-300
-300
-300
-300
-300
-300
-300
-300
-300
-300
100
93.1157
86.3939
79.9868
74.0271
68.6212
63.8461
59.7496
56.3532
53.6582
51.6533
50.3218
49.6486
49.6257
50.2545
51.546
53.5177
56.1883
59.5709
63.6648
68.4486
73.8741
79.8629
86.3067
93.0707
100
-300
-300
-300
-300
-300
-300
-300
-300
-300
-300
100
92.4551
85.0894
78.0706
71.5448
65.6295
60.4095
55.937
52.2355
49.3061
47.1352
45.7032
44.9925
44.9925
45.7032
47.1352
49.3061
52.2355
55.937
60.4095
65.6295
71.5448
78.0706
85.0894
92.4551
100
-300
-300
-300
-300
-300
-300
-300
-300
-300
-300
-300
-300
-300
-300
100
92.5329
85.2417
78.291
71.8243
65.9569
60.772
56.3213
52.6283
49.6948
47.5085
46.052
45.3097
45.2734
45.9455
47.3386
49.4723
52.3675
56.0386
60.4852
65.684
71.5824
78.0951
85.1039
92.4618
100
-300
-300
-300
-300
-300
-300
-300
-300
-300
-300
100
91.9483
84.0878
76.5975
69.6334
63.3208
57.7502
52.9774
49.0274
45.9013
43.5846
42.0566
41.2981
41.2981
42.0566
43.5846
45.9013
49.0274
52.9774
57.7502
63.3208
69.6334
76.5975
84.0878
91.9483
100
-300
-300
-300
-300
-300
-300
-300
-300
-300
-300
-300
-300
-300
-300
100
92.0684
84.323
76.938
70.0654
63.8269
58.3109
53.572
49.6353
46.503
44.1626
42.5965
41.789
41.7326
42.431
43.8986
46.1573
49.2302
53.133
57.8657
63.4034
69.69
76.6341
84.1093
91.9582
100
-300
-300
-300
-300
-300
-300
-300
-300
-300
-300
100
91.5376
83.2762
75.4038
68.0846
61.4501
55.5954
50.5792
46.4279
43.1424
40.7077
39.1017
38.3047
38.3047
39.1017
40.7077
43.1424
46.4279
50.5792
55.5954
61.4501
68.0846
75.4038
83.2762
91.5376
100
-300
-300
-300
-300
-300
-300
-300
-300
-300
-300
-300
-300
-300
-300
100
91.7195
83.6325
75.9198
68.7393
62.2175
56.446
51.4817
47.3509
44.0561
41.5856
39.9217
39.0498
38.9637
39.6691
41.1827
43.529
46.7331
50.8126
55.7677
61.5725
68.1677
75.4571
83.3072
91.5517
100
-300
-300
-300
-300
-300
-300
-300
-300
-300
-300
100
91.2123
82.6334
74.4586
66.8581
59.9687
53.8891
48.6803
44.3695
40.9579
38.4296
36.7621
35.9344
35.9344
36.7621
38.4296
40.9579
44.3695
48.6803
53.8891
59.9687
66.8581
74.4586
82.6334
91.2123
100
-300
-300
-300
-300
-300
-300
-300
-300
-300
-300
-300
-300
-300
-300
100
91.4826
83.1628
75.2255
67.8316
61.1103
55.1551
50.0241
45.7443
42.3193
39.7378
37.9837
37.044
36.915
37.6052
39.1344
41.5299
44.8196
49.0229
54.1405
60.1458
66.9772
74.534
82.6768
91.2319
100
-300
-300
-300
-300
-300
-300
-300
-300
-300
-300
100
90.9606
82.136
73.7271
65.9089
58.8223
52.5686
47.2107
42.7765
39.2673
36.6667
34.9515
34.1001
34.1001
34.9515
36.6667
39.2673
42.7765
47.2107
52.5686
58.8223
65.9089
73.7271
82.136
90.9606
100
-300
-300
-300
-300
-300
-300
-300
-300
-300
-300
-300
-300
-300
-300
100
91.3545
82.9076
74.8451
67.3288
60.4883
54.4173
49.1741
44.7862
41.2579
38.5795
36.7373
35.7213
35.5314
36.1802
37.6916
40.0968
43.4267
47.7028
52.9271
59.0724
66.075
73.8306
82.1946
90.9868
100
-300
-300
-300
-300
-300
-300
-300
-300
-300
-300
100
90.7702
81.7598
73.1737
65.1909
57.955
51.5698
46.0991
41.5716
37.9886
35.3333
33.582
32.7127
32.7127
33.582
35.3333
37.9886
41.5716
46.0991
51.5698
57.955
65.1909
73.1737
81.7598
90.7702
100
-300
-300
-300
-300
-300
-300
-300
-300
-300
-300
-300
-300
-300
-300
100
91.3332
82.8629
74.773
67.2231
60.341
54.219
48.9145
44.4548
40.8453
38.0785
36.1441
35.0369
34.7622
35.3382
36.7945
39.1672
42.4911
46.7907
52.0692
58.2993
65.4158
73.3111
81.8358
90.8035
100
-300
-300
-300
-300
-300
-300
-300
-300
-300
-300
100
90.6295
81.4815
72.7645
64.66
57.3138
50.8312
45.2771
40.6807
37.043
34.3473
32.5693
31.6868
31.6868
32.5693
34.3473
37.043
40.6807
45.2771
50.8312
57.3138
64.66
72.7645
81.4815
90.6295
100
-300
-300
-300
-300
-300
-300
-300
-300
-300
-300
-300
-300
-300
-300
100
91.4189
83.0292
75.0092
67.5141
60.6673
54.5577
49.2404
44.7419
41.0684
38.2156
36.1781
34.9574
34.5665
35.0317
36.39
38.684
41.9539
46.2275
51.5101
57.7747
64.9547
72.9396
81.5754
90.6693
100
-300
-300
-300
-300
-300
-300
-300
-300
-300
-300
100
90.5277
81.2804
72.4687
64.2762
56.8502
50.2972
44.6829
40.0366
36.3595
33.6346
31.8373
30.9452
30.9452
31.8373
33.6346
36.3595
40.0366
44.6829
50.2972
56.8502
64.2762
72.4687
81.2804
90.5277
100
-300
-300
-300
-300
-300
-300
-300
-300
-300
-300
-300
-300
-300
-300
100
91.6142
83.411
75.5608
68.2107
61.4774
55.444
50.1617
45.6549
41.9307
38.9882
36.8289
35.4637
34.9163
35.224
36.4342
38.598
41.7622
45.9592
51.1969
57.4492
64.6484
72.6812
81.3886
90.5714
100
-300
-300
-300
-300
-300
-300
-300
-300
-300
-300
100
90.4557
81.1382
72.2595
64.0048
56.5225
49.9198
44.2628
39.5813
35.8763
33.1308
31.3199
30.4211
30.4211
31.3199
33.1308
35.8763
39.5813
44.2628
49.9198
56.5225
64.0048
72.2595
81.1382
90.4557
100
-300
-300
-300
-300
-300
-300
-300
-300
-300
-300
-300
-300
-300
-300
100
91.9232
84.0172
76.4406
69.3299
62.7919
56.9015
51.7033
47.2182
43.453
40.4111
38.1029
36.5517
35.7966
35.8901
36.893
38.8679
41.8697
45.9367
51.0803
57.2757
64.4546
72.5009
81.2506
90.4968
100
-300
-300
-300
-300
-300
-300
-300
-300
-300
-300
100
90.406
81.0398
72.115
63.8173
56.2959
49.6588
43.9725
39.2666
35.5424
32.7825
30.9622
30.0587
30.0587
30.9622
32.7825
35.5424
39.2666
43.9725
49.6588
56.2959
63.8173
72.115
81.0398
90.406
100
-300
-300
-300
-300
-300
-300
-300
-300
-300
-300
-300
-300
-300
-300
100
92.3516
84.8588
77.6657
70.8947
64.6397
58.9642
53.9033
49.4715
45.6733
42.5163
40.0219
38.2311
37.2039
37.0137
37.7395
39.458
42.2346
46.1143
51.1128
57.2076
64.3303
72.3626
81.1349
90.4314
100
-300
-300
-300
-300
-300
-300
-300
-300
-300
-300
100
90.3723
80.9734
72.0172
63.6904
56.1427
49.4824
43.7761
39.0538
35.3165
32.5471
30.7204
29.8138
29.8138
30.7204
32.5471
35.3165
39.0538
43.7761
49.4824
56.1427
63.6904
72.0172
80.9734
90.3723
100
-300
-300
-300
-300
-300
-300
-300
-300
-300
-300
-300
-300
-300
-300
100
92.9048
85.9473
79.2539
72.9299
67.0534
61.6728
56.8097
52.4675
48.6447
45.3509
42.6212
40.5213
39.1414
38.5833
38.95
40.3353
42.8166
46.4468
51.2466
57.1965
64.2295
72.2259
81.0113
90.359
100
-300
-300
-300
-300
-300
-300
-300
-300
-300
-300
100
90.3501
80.9294
71.9526
63.6065
56.0414
49.3657
43.6463
38.9131
35.1672
32.3913
30.5605
29.6517
29.6517
30.5605
32.3913
35.1672
38.9131
43.6463
49.3657
56.0414
63.6065
71.9526
80.9294
90.3501
100
-300
-300
-300
-300
-300
-300
-300
-300
-300
-300
-300
-300
-300
-300
100
93.5869
87.2912
81.2192
75.457
70.0638
65.0692
60.476
56.2697
52.4345
48.9768
45.9468
43.4473
41.6129
40.5855
40.4977
41.4635
43.5728
46.8863
51.43
57.1886
64.0989
72.0426
80.8419
90.2583
100
-300
-300
-300
-300
-300
-300
-300
-300
-300
-300
100
90.3357
80.901
71.9107
63.5522
55.9759
49.2902
43.5623
38.822
35.0706
32.2906
30.457
29.5469
29.5469
30.457
32.2906
35.0706
38.822
43.5623
49.2902
55.9759
63.5522
71.9107
80.901
90.3357
100
-300
-300
-300
-300
-300
-300
-300
-300
-300
-300
-300
-300
-300
-300
100
94.3985
88.8926
83.5674
78.4881
73.693
69.1898
64.9566
60.9503
57.1265
53.4728
50.0538
47.0326
44.6143
42.996
42.3459
42.7982
44.4535
47.3786
51.6045
57.1216
63.874
71.7503
80.575
90.0993
100
-300
-300
-300
-300
-300
-300
-300
-300
-300
-300
100
90.3266
80.8829
71.8842
63.5179
55.9344
49.2424
43.5091
38.7644
35.0094
32.2268
30.3915
29.4805
29.4805
30.3915
32.2268
35.0094
38.7643
43.5091
49.2424
55.9343
63.5179
71.8842
80.8829
90.3266
100
-300
-300
-300
-300
-300
-300
-300
-300
-300
-300
-300
-300
-300
-300
100
95.3352
90.744
86.29
82.0178
77.945
74.0561
70.2995
66.5904
62.8288
58.9472
55.0067
51.2901
48.1204
45.7686
44.4392
44.281
45.399
47.8618
51.7035
56.9219
63.4737
71.2647
80.1348
89.8342
100
-300
-300
-300
-300
-300
-300
-300
-300
-300
-300
100
90.3209
80.8718
71.8678
63.4966
55.9086
49.2128
43.4761
38.7286
34.9715
32.1872
30.3509
29.4394
29.4394
30.3509
32.1872
34.9715
38.7286
43.4761
49.2128
55.9086
63.4966
71.8678
80.8718
90.3209
100
-300
-300
-300
-300
-300
-300
-300
-300
-300
-300
-300
-300
-300
-300
100
96.3861
92.8246
89.3592
86.0161
82.7956
79.6627
76.5364
73.279
69.6948
65.5734
60.8826
56.2036
52.0646
48.8202
46.6952
45.8357
46.3387
48.2667
51.6534
56.505
62.7972
70.469
79.4027
89.3798
100
-300
-300
-300
-300
-300
-300
-300
-300
-300
-300
100
90.3175
80.865
71.8578
63.4836
55.893
49.1948
43.4561
38.7069
34.9485
32.1632
30.3262
29.4144
29.4144
30.3262
32.1632
34.9484
38.7069
43.4561
49.1948
55.893
63.4836
71.8578
80.865
90.3175
100
-300
-300
-300
-300
-300
-300
-300
-300
-300
-300
-300
-300
-300
-300
100
97.5325
95.098
92.723
90.4199
88.1791
85.9574
83.6592
81.1027
77.9613
73.6999
67.7624
61.6827
56.304
52.0122
48.9972
47.3678
47.1939
48.5219
51.3799
55.7804
61.7239
69.2006
78.1827
88.5703
100
-300
-300
-300
-300
-300
-300
-300
-300
-300
-300
100
90.3154
80.861
71.8519
63.476
55.8837
49.1841
43.4442
38.6941
34.9348
32.149
30.3116
29.3996
29.3996
30.3116
32.149
34.9348
38.694
43.4442
49.1841
55.8837
63.4759
71.8519
80.861
90.3154
100
-300
-300
-300
-300
-300
-300
-300
-300
-300
-300
-300
-300
-300
-300
100
98.748
97.5119
96.3037
95.1277
93.9747
92.8134
91.5713
90.0878
87.9809
84.2203
75.6319
67.4452
60.5637
55.1353
51.1957
48.7707
47.8862
48.5638
50.8199
54.6675
60.1268
67.2464
76.1416
87.0264
100
-300
-300
-300
-300
-300
-300
-300
-300
-300
-300
100
90.3143
80.8586
71.8485
63.4715
55.8784
49.1779
43.4373
38.6866
34.9268
32.1407
30.3031
29.391
29.391
30.303
32.1407
34.9268
38.6865
43.4372
49.1778
55.8783
63.4714
71.8484
80.8586
90.3142
100
-300
-300
-300
-300
-300
-300
-300
-300
-300
-300
-300
-300
-300
-300
100
100
100
100
100
100
100
100
100
100
100
83.7445
72.7501
64.3867
57.9195
53.1267
49.9425
48.351
48.3503
49.9404
53.1233
57.9148
64.3811
72.7441
83.7394
100
100
100
100
100
100
100
100
100
100
100
100
90.3136
80.8573
71.8465
63.4689
55.8753
49.1744
43.4334
38.6823
34.9223
32.136
30.2982
29.386
29.386
30.2981
32.1359
34.9222
38.6822
43.4332
49.1742
55.8751
63.4688
71.8464
80.8572
90.3135
100
-300
-300
-300
-300
-300
-300
-300
-300
-300
-300
-300
-300
-300
-300
-300
-300
-300
-300
-300
-300
-300
-300
-300
-300
100
87.0265
76.1407
67.2438
60.1221
54.6607
50.8111
48.5532
47.8739
48.757
51.1808
55.1195
60.5472
67.4288
75.6163
84.2066
87.9682
90.076
91.5604
92.8037
93.9663
95.1207
96.2983
97.5082
98.7462
100
100
90.3132
80.8566
71.8454
63.4675
55.8736
49.1724
43.4312
38.6799
34.9198
32.1333
30.2955
29.3832
29.3832
30.2954
32.1331
34.9195
38.6796
43.4309
49.1721
55.8733
63.4673
71.8452
80.8564
90.3131
100
-300
-300
-300
-300
-300
-300
-300
-300
-300
-300
-300
-300
-300
-300
-300
-300
-300
-300
-300
-300
-300
-300
-300
-300
100
88.5668
78.1753
69.1893
61.7087
55.7616
51.3578
48.4969
47.1664
47.3383
48.9662
51.9801
56.2713
61.6501
67.7305
73.6695
77.9324
81.0755
83.6342
85.935
88.1597
90.4038
92.7106
95.0896
97.5282
100
100
90.313
80.8561
71.8448
63.4667
55.8726
49.1713
43.4299
38.6786
34.9183
32.1318
30.2939
29.3816
29.3816
30.2937
32.1315
34.9179
38.6781
43.4294
49.1707
55.8721
63.4662
71.8444
80.8558
90.3128
100
-300
-300
-300
-300
-300
-300
-300
-300
-300
-300
-300
-300
-300
-300
-300
-300
-300
-300
-300
-300
-300
-300
-300
-300
100
89.3721
79.3874
70.4463
62.7675
56.4689
51.6117
48.2201
46.2881
45.7819
46.639
48.7624
52.0061
56.1452
60.8251
65.5177
69.6415
73.2289
76.4902
79.6212
82.7596
85.9863
89.3362
92.809
96.3782
100
100
90.3129
80.8559
71.8445
63.4663
55.8721
49.1707
43.4293
38.6778
34.9175
32.1309
30.293
29.3807
29.3805
30.2926
32.1304
34.9168
38.6769
43.4283
49.1697
55.8711
63.4654
71.8437
80.8554
90.3126
100
-300
-300
-300
-300
-300
-300
-300
-300
-300
-300
-300
-300
-300
-300
-300
-300
-300
-300
-300
-300
-300
-300
-300
-300
100
89.8204
80.1075
71.2245
63.4215
56.8589
51.6309
47.781
45.3116
44.1883
44.3426
45.6695
48.0201
51.1899
54.908
58.8512
62.7368
66.5038
70.2197
73.9844
77.8828
81.9662
86.2503
90.717
95.3216
100
100
90.3128
80.8558
71.8443
63.4661
55.8718
49.1704
43.4289
38.6774
34.917
32.1304
30.2923
29.3799
29.3797
30.2917
32.1294
34.9157
38.6758
43.4271
49.1685
55.87
63.4644
71.8429
80.8548
90.3123
100
-300
-300
-300
-300
-300
-300
-300
-300
-300
-300
-300
-300
-300
-300
-300
-300
-300
-300
-300
-300
-300
-300
-300
-300
100
90.076
80.5289
71.6826
63.7862
57.0158
51.4828
47.2434
44.3072
42.6433
42.1846
42.8305
44.4469
46.8655
49.889
53.3125
56.9729
60.8057
64.8231
69.0699
73.5889
78.4019
83.501
88.8475
94.3757
100
100
90.3128
80.8557
71.8442
63.4659
55.8716
49.1701
43.4286
38.677
34.9166
32.1298
30.2917
29.3792
29.3788
30.2906
32.1281
34.9142
38.6742
43.4254
49.1668
55.8683
63.4629
71.8417
80.8539
90.3119
100
-300
-300
-300
-300
-300
-300
-300
-300
-300
-300
-300
-300
-300
-300
-300
-300
-300
-300
-300
-300
-300
-300
-300
-300
100
90.2202
80.7665
71.9318
63.9554
57.0156
51.2311
46.6654
43.3339
41.2105
40.2344
40.3155
41.3399
43.1747
45.678
48.7153
52.1839
56.0336
60.2583
64.8736
69.894
75.3165
81.1108
87.2175
93.5496
100
100
90.3128
80.8557
71.8441
63.4658
55.8715
49.1699
43.4283
38.6767
34.9161
32.1292
30.2909
29.3781
29.3775
30.289
32.1262
34.9121
38.6718
43.4228
49.1641
55.8657
63.4606
71.8398
80.8525
90.3111
100
-300
-300
-300
-300
-300
-300
-300
-300
-300
-300
-300
-300
-300
-300
-300
-300
-300
-300
-300
-300
-300
-300
-300
-300
100
90.2978
80.8905
72.0485
63.9997
56.9195
50.9284
46.0935
42.4345
39.9308
38.5291
38.1519
38.7051
40.0857
42.1917
44.9331
48.2443
52.0903
56.4618
61.3603
66.7821
72.7053
79.0808
85.8296
92.8453
100
100
90.3128
80.8557
71.8441
63.4657
55.8713
49.1697
43.428
38.6762
34.9155
32.1284
30.2897
29.3766
29.3755
30.2865
32.1232
34.9086
38.6678
43.4185
49.1597
55.8615
63.4567
71.8365
80.8502
90.3099
100
-300
-300
-300
-300
-300
-300
-300
-300
-300
-300
-300
-300
-300
-300
-300
-300
-300
-300
-300
-300
-300
-300
-300
-300
100
90.3354
80.9453
72.0841
63.9698
56.7731
50.6137
45.5604
41.6358
38.8242
37.0802
36.338
36.5207
37.5489
39.3494
41.8622
45.0465
48.8811
53.3588
58.4751
64.2151
70.5432
77.3949
84.6746
92.2584
100
100
90.3127
80.8556
71.844
63.4656
55.8711
49.1694
43.4276
38.6756
34.9145
32.127
30.2879
29.3741
29.3724
30.2826
32.1184
34.9029
38.6614
43.4116
49.1526
55.8545
63.4503
71.8312
80.8464
90.3079
100
-300
-300
-300
-300
-300
-300
-300
-300
-300
-300
-300
-300
-300
-300
-300
-300
-300
-300
-300
-300
-300
-300
-300
-300
100
90.349
80.9589
72.0726
63.9001
56.6077
50.3131
45.0855
40.9498
37.8944
35.8807
34.8528
34.7479
35.5048
37.0709
39.4074
42.4912
46.3125
50.8681
56.1512
62.1406
68.7907
76.0251
83.7346
91.7802
100
100
90.3127
80.8556
71.8439
63.4654
55.8709
49.169
43.4269
38.6746
34.9131
32.125
30.285
29.3703
29.3674
30.2763
32.1108
34.8939
38.6512
43.4005
49.1411
55.8432
63.44
71.8226
80.8402
90.3047
100
-300
-300
-300
-300
-300
-300
-300
-300
-300
-300
-300
-300
-300
-300
-300
-300
-300
-300
-300
-300
-300
-300
-300
-300
100
90.3484
80.9485
72.0351
63.8123
56.4422
50.0408
44.6769
40.3769
37.1325
34.9104
33.6631
33.3384
33.8887
35.2767
37.4786
40.4842
44.2929
48.9057
54.3158
60.4981
67.4
74.936
82.9862
91.3992
100
100
90.3127
80.8555
71.8437
63.4652
55.8704
49.1683
43.4259
38.673
34.9109
32.1218
30.2807
29.3645
29.3598
30.2667
32.0989
34.8799
38.6352
43.383
49.1229
55.8253
63.4235
71.8088
80.8303
90.2995
100
-300
-300
-300
-300
-300
-300
-300
-300
-300
-300
-300
-300
-300
-300
-300
-300
-300
-300
-300
-300
-300
-300
-300
-300
100
90.3393
80.9242
71.984
63.7182
56.2862
49.8018
44.3334
39.9085
36.5209
34.1416
32.729
32.2394
32.635
33.8895
35.9901
38.9363
42.7343
47.3891
52.8948
59.2239
66.3192
74.0885
82.4031
91.1022
100
100
90.3126
80.8553
71.8435
63.4648
55.8698
49.1673
43.4244
38.6708
34.9075
32.1171
30.2741
29.3556
29.3481
30.2519
32.0807
34.8583
38.6105
43.3559
49.0945
55.7972
63.3976
71.7871
80.8146
90.2912
100
-300
-300
-300
-300
-300
-300
-300
-300
-300
-300
-300
-300
-300
-300
-300
-300
-300
-300
-300
-300
-300
-300
-300
-300
100
90.3245
80.8907
71.9245
63.6224
56.1414
49.5939
44.0475
39.53
36.0369
33.542
32.0082
31.3976
31.6798
32.8363
34.8623
37.7643
41.554
46.2397
51.8165
58.2557
65.4969
73.4428
81.9585
90.8755
100
100
90.3125
80.8552
71.8432
63.4642
55.8689
49.1659
43.4222
38.6675
34.9027
32.1101
30.2645
29.3425
29.3309
30.2299
32.0535
34.8257
38.573
43.3145
49.0509
55.7539
63.3575
71.7534
80.7902
90.2784
100
-300
-300
-300
-300
-300
-300
-300
-300
-300
-300
-300
-300
-300
-300
-300
-300
-300
-300
-300
-300
-300
-300
-300
-300
100
90.3045
80.8488
71.8569
63.5236
56.0041
49.4095
43.8067
39.2231
35.6552
33.0783
31.4586
30.7622
30.9637
32.0503
34.0229
36.8932
40.6771
45.3855
51.0146
57.535
64.8841
72.9613
81.6267
90.7064
100
100
90.3124
80.8549
71.8427
63.4635
55.8676
49.1639
43.419
38.6628
34.8958
32.1002
30.2505
29.3235
29.3058
30.1976
32.0133
34.7775
38.5172
43.2525
48.9853
55.6883
63.2964
71.7017
80.7526
90.2586
100
-300
-300
-300
-300
-300
-300
-300
-300
-300
-300
-300
-300
-300
-300
-300
-300
-300
-300
-300
-300
-300
-300
-300
-300
100
90.2781
80.796
71.7771
63.4155
55.8654
49.2367
43.5951
38.9673
35.3495
32.7181
31.0407
30.2864
30.4332
31.4721
33.4083
36.2572
40.0376
44.7629
50.4299
57.0092
64.4369
72.6096
81.3843
90.5827
100
100
90.3123
80.8546
71.8421
63.4624
55.8659
49.1611
43.4147
38.6562
34.8861
32.0862
30.2309
29.2967
29.27
30.1514
31.9555
34.7075
38.4355
43.1612
48.888
55.5903
63.2045
71.6235
80.6954
90.2283
100
-300
-300
-300
-300
-300
-300
-300
-300
-300
-300
-300
-300
-300
-300
-300
-300
-300
-300
-300
-300
-300
-300
-300
-300
100
90.2425
80.7264
71.6768
63.2877
55.7127
49.0603
43.3946
38.7408
35.0941
32.4306
30.7188
29.9291
30.0418
31.0508
32.9641
35.7998
39.5792
44.3172
50.0117
56.6333
64.1171
72.3581
81.2109
90.4942
100
100
90.3121
80.8541
71.8412
63.4609
55.8635
49.1573
43.4088
38.6473
34.8728
32.067
30.2038
29.2594
29.2201
30.0866
31.8738
34.6078
38.3185
43.0292
48.746
55.446
63.0681
71.5064
80.6093
90.1826
100
-300
-300
-300
-300
-300
-300
-300
-300
-300
-300
-300
-300
-300
-300
-300
-300
-300
-300
-300
-300
-300
-300
-300
-300
100
90.1925
80.6308
71.543
63.1246
55.5286
48.8615
43.1848
38.5212
34.8639
32.1878
30.461
29.6546
29.7503
30.7437
32.645
35.4745
39.2552
44.0035
49.718
56.3696
63.8929
72.1818
81.0893
90.4322
100
100
90.3118
80.8535
71.8401
63.4591
55.8604
49.1523
43.401
38.6354
34.8551
32.0412
30.1672
29.2089
29.1521
29.9975
31.7607
34.4688
38.1536
42.8415
48.542
55.2365
62.8678
71.333
80.4807
90.1139
100
-300
-300
-300
-300
-300
-300
-300
-300
-300
-300
-300
-300
-300
-300
-300
-300
-300
-300
-300
-300
-300
-300
-300
-300
100
90.1206
80.4952
71.3575
62.9054
55.291
48.6177
42.9431
38.2856
34.635
31.9642
30.2398
29.433
29.526
30.516
32.4146
35.2438
39.0282
43.7854
49.5149
56.1878
63.7385
72.0605
81.0058
90.3896
100
100
90.3115
80.8527
71.8387
63.4566
55.8564
49.1459
43.391
38.62
34.832
32.0075
30.1191
29.142
29.0614
29.878
31.6076
34.2789
37.926
42.5793
48.2536
54.9364
62.5772
71.0781
80.2896
90.0111
100
-300
-300
-300
-300
-300
-300
-300
-300
-300
-300
-300
-300
-300
-300
-300
-300
-300
-300
-300
-300
-300
-300
-300
-300
100
90.0156
80.2991
71.0941
62.6016
54.9716
48.3022
42.6443
38.0101
34.3846
31.7369
30.0317
29.2396
29.343
30.3401
32.2441
35.0783
38.869
43.6347
49.3759
56.0641
63.634
71.9786
80.9494
90.3609
100
100
90.3111
80.8518
71.837
63.4536
55.8514
49.1379
43.3783
38.6005
34.8027
31.9645
30.0574
29.0555
28.9434
29.7211
31.4049
34.0248
37.618
42.2198
47.8523
54.5123
62.1595
70.7056
80.0061
89.857
100
-300
-300
-300
-300
-300
-300
-300
-300
-300
-300
-300
-300
-300
-300
-300
-300
-300
-300
-300
-300
-300
-300
-300
-300
100
89.8598
80.0122
70.7158
62.175
54.5345
47.8828
42.2605
37.6706
34.0908
31.4854
29.8168
29.0542
29.1804
30.1947
32.1115
34.9558
38.7553
43.5299
49.2809
55.9807
63.564
71.9241
80.912
90.3418
100
100
90.3106
80.8507
71.8349
63.45
55.8454
49.1281
43.3628
38.5765
34.7665
31.9109
29.98
28.9465
28.7936
29.5203
31.1429
33.6926
37.2101
41.7365
47.3035
53.9208
61.5645
70.163
79.5843
89.6237
100
-300
-300
-300
-300
-300
-300
-300
-300
-300
-300
-300
-300
-300
-300
-300
-300
-300
-300
-300
-300
-300
-300
-300
-300
100
89.6255
79.5881
70.1693
61.574
53.9345
47.3223
41.7615
37.2422
33.7329
31.192
29.5786
28.8611
29.0227
30.0638
32.0005
34.8598
38.6709
43.4553
49.2154
55.9243
63.5174
71.8881
80.8874
90.3293
100
100
90.31
80.8494
71.8325
63.4458
55.8383
49.1165
43.3444
38.5478
34.7228
31.846
29.8857
28.8127
28.6082
29.2696
30.8124
33.2686
36.682
41.1004
46.5666
53.1079
60.7241
69.3733
78.9513
89.2643
100
-300
-300
-300
-300
-300
-300
-300
-300
-300
-300
-300
-300
-300
-300
-300
-300
-300
-300
-300
-300
-300
-300
-300
-300
100
89.2654
78.9536
69.3771
60.7299
53.1161
46.5779
41.1154
36.7013
33.2928
30.8418
29.3045
28.6486
28.8582
29.9358
31.8995
34.7786
38.6042
43.3997
49.1687
55.8855
63.4862
71.8643
80.8714
90.3213
100
100
90.3094
80.848
71.8298
63.4411
55.8303
49.1033
43.323
38.5143
34.6716
31.7694
29.7738
28.6529
28.385
28.965
30.4067
32.7417
36.0157
40.2828
45.5979
52.009
59.549
68.2232
77.9862
88.6915
100
-300
-300
-300
-300
-300
-300
-300
-300
-300
-300
-300
-300
-300
-300
-300
-300
-300
-300
-300
-300
-300
-300
-300
-300
100
88.6922
77.9876
68.2255
59.5525
52.0139
45.6046
40.2916
36.0271
32.7559
30.424
28.9855
28.4087
28.6796
29.8032
31.8008
34.7043
38.5474
43.3555
49.1339
55.858
63.4648
71.8485
80.8609
90.316
100
100
90.3088
80.8465
71.827
63.4361
55.8216
49.0886
43.2992
38.4766
34.6134
31.6818
29.6449
28.4674
28.1239
28.6057
29.9231
32.1055
35.1987
39.2607
44.3566
50.5552
57.928
66.5484
76.4816
87.7261
100
-300
-300
-300
-300
-300
-300
-300
-300
-300
-300
-300
-300
-300
-300
-300
-300
-300
-300
-300
-300
-300
-300
-300
-300
100
87.7265
76.4824
66.5497
57.93
50.5581
44.3605
39.2658
35.2053
32.1136
29.933
28.6175
28.1375
28.4827
29.6618
31.6999
34.6322
38.4957
43.3179
49.1062
55.8375
63.4497
71.8378
80.854
90.3126
100
100
90.3083
80.8453
71.8244
63.4311
55.8126
49.0732
43.2737
38.4357
34.5495
31.5848
29.501
28.2587
27.8279
28.1946
29.3642
31.3614
34.2289
38.0239
42.8159
48.6872
55.7414
64.1259
74.0748
85.9485
100
-300
-300
-300
-300
-300
-300
-300
-300
-300
-300
-300
-300
-300
-300
-300
-300
-300
-300
-300
-300
-300
-300
-300
-300
100
85.9487
74.0753
64.1267
55.7425
48.6888
42.8181
38.0268
34.2326
31.366
29.3698
28.2013
27.8355
28.2673
29.5105
31.595
34.5602
38.4464
43.2842
49.0832
55.8216
63.4388
71.8305
80.8495
90.3105
100
100
90.3081
80.8445
71.8225
63.4268
55.8043
49.0581
43.2477
38.3931
34.4821
31.4811
29.3457
28.0315
27.503
27.7398
28.74
30.5212
33.1189
36.5837
40.9792
46.3843
52.905
60.7142
70.1712
82.2284
100
100
100
100
100
100
100
100
100
100
100
100
100
100
100
100
100
100
100
100
100
100
100
100
100
100
82.2285
70.1715
60.7146
52.9057
46.3852
40.9804
36.5853
33.121
30.5238
28.7431
27.7434
27.5073
28.0363
29.3509
31.4867
34.488
38.399
43.2536
49.0636
55.8092
63.4311
71.8258
80.8468
90.3093
100
100
90.3083
80.8446
71.8218
63.4241
55.7977
49.0447
43.2233
38.3514
34.4142
31.3748
29.1844
27.7932
27.1591
27.2542
28.0679
29.6082
31.8995
34.9796
38.8963
43.7042
49.4655
56.2518
64.135
73.0777
82.2284
85.9484
87.7261
88.6914
89.264
89.6232
89.856
90.0095
90.1111
90.1778
90.2202
90.2453
90.2569
90.2569
90.2453
90.2202
90.1778
90.1111
90.0095
89.856
89.6232
89.264
88.6914
87.7261
85.9484
82.2284
73.0777
64.1352
56.252
49.4658
43.7047
38.8969
34.9805
31.9006
29.6096
28.0696
27.2562
27.1614
27.7958
29.1872
31.3779
34.4174
38.3546
43.2265
49.0477
55.8004
63.4265
71.8236
80.8459
90.3089
100
100
90.3094
80.8464
71.8235
63.4246
55.7948
49.0355
43.2033
38.314
34.3503
31.2716
29.0244
27.5533
26.8091
26.7555
27.3721
28.6556
30.617
33.2781
36.6649
40.8008
45.6952
51.3235
57.577
64.135
70.1711
74.0748
76.4814
77.9859
78.9507
79.5833
80.0043
80.2864
80.4752
80.6
80.6799
80.7272
80.7491
80.7491
80.7272
80.6799
80.6
80.4752
80.2864
80.0043
79.5833
78.9507
77.9859
76.4814
74.0748
70.1712
64.135
57.5771
51.3236
45.6954
40.801
36.6652
33.2785
30.6176
28.6563
27.373
26.7566
26.8104
27.5547
29.0259
31.2732
34.352
38.3157
43.205
49.0371
55.7963
63.4258
71.8245
80.8471
90.3097
100
100
90.3118
80.851
71.8294
63.4304
55.7985
49.0338
43.1917
38.2859
34.2963
31.1786
28.875
27.3238
26.4688
26.2649
26.6817
27.7037
29.3281
31.5601
34.4052
37.8592
41.8943
46.4357
51.3235
56.2518
60.7142
64.1258
66.5481
68.2227
69.3725
70.1615
70.7031
71.0737
71.3254
71.4935
71.6019
71.6664
71.6964
71.6964
71.6664
71.6019
71.4935
71.3254
71.0737
70.7031
70.1615
69.3725
68.2227
66.5481
64.1258
60.7142
56.2518
51.3235
46.4358
41.8944
37.8593
34.4053
31.5604
29.3285
27.7041
26.6821
26.2655
26.4695
27.3245
28.8758
31.1795
34.2972
38.2868
43.1926
49.0347
55.7992
63.431
71.8299
80.8513
90.312
100
100
90.3166
80.86
71.8419
63.4449
55.8127
49.0446
43.1943
38.2736
34.2599
31.1054
28.7474
27.1188
26.1562
25.8061
26.0279
26.795
28.0914
29.9076
32.2324
35.0433
38.2934
41.8943
45.6952
49.4654
52.905
55.7413
57.9277
59.5485
60.7232
61.5627
62.1564
62.5718
62.8586
63.0525
63.1786
63.254
63.2892
63.2892
63.254
63.1786
63.0525
62.8586
62.5718
62.1564
61.5627
60.7232
59.5485
57.9277
55.7413
52.905
49.4654
45.6952
41.8943
38.2935
35.0434
32.2324
29.9077
28.0916
26.7952
26.0282
25.8064
26.1566
27.1192
28.7478
31.1058
34.2604
38.2741
43.1947
49.045
55.8131
63.4452
71.8421
80.8602
90.3167
100
100
90.3248
80.8761
71.8647
63.4729
55.8435
49.0748
43.2191
38.2865
34.2518
31.0637
28.6556
26.9549
25.8915
25.404
25.4429
25.971
26.9615
28.3927
30.2419
32.4763
35.0433
37.8592
40.8008
43.7041
46.3842
48.687
50.5549
52.0085
53.1068
53.9189
54.5089
54.9305
55.2263
55.4289
55.5619
55.6419
55.6795
55.6795
55.6419
55.5619
55.4289
55.2263
54.9305
54.5089
53.9189
53.1068
52.0085
50.5549
48.687
46.3842
43.7041
40.8008
37.8592
35.0433
32.4764
30.2419
28.3928
26.9615
25.9711
25.443
25.4041
25.8917
26.9551
28.6558
31.0639
34.252
38.2867
43.2193
49.075
55.8437
63.473
71.8648
80.8761
90.3249
100
100
90.3385
80.9027
71.9033
63.5214
55.8994
49.1344
43.2775
38.3371
34.2857
31.0692
28.6169
26.8515
25.6971
25.0852
24.9583
25.2707
25.9862
27.0746
28.5056
30.2419
32.2323
34.4051
36.6649
38.8962
40.9791
42.8157
44.3563
45.5973
46.5655
47.3015
47.8488
48.2475
48.5315
48.7284
48.8589
48.938
48.9752
48.9752
48.938
48.8589
48.7284
48.5315
48.2475
47.8488
47.3015
46.5655
45.5973
44.3563
42.8157
40.9791
38.8962
36.6649
34.4052
32.2324
30.2419
28.5056
27.0746
25.9863
25.2708
24.9584
25.0852
25.6971
26.8516
28.617
31.0693
34.2858
38.3372
43.2776
49.1345
55.8995
63.5215
71.9033
80.9028
90.3385
100
100
90.36
80.9452
71.965
63.6003
55.9923
49.2372
43.385
38.4426
34.3804
31.1418
28.6529
26.8322
25.5987
24.8781
24.6062
24.7303
25.207
26
27.0746
28.3927
29.9076
31.5601
33.278
34.9796
36.5836
38.0237
39.2604
40.2822
41.0993
41.7346
42.2164
42.5733
42.8313