# vtk DataFile Version 2.0
LBE two cylinders
ASCII
DATASET STRUCTURED_POINTS
DIMENSIONS 76 76 1
ASPECT_RATIO 1 1 1
ORIGIN 0 0 0
POINT_DATA 5776
SCALARS temp double 1
LOOKUP_TABLE default
100
100
100
100
100
100
100
100
100
100
100
100
100
100
100
100
100
100
100
100
100
100
100
100
100
100
-300
-300
-300
-300
-300
-300
-300
-300
-300
-300
-300
-300
-300
-300
100
100
100
100
100
100
100
100
100
100
100
100
100
100
100
100
100
100
100
100
100
100
100
100
100
100
-300
-300
-300
-300
-300
-300
-300
-300
-300
-300
100
97.1455
94.4509
92.0496
90.0286
88.4214
87.213
86.3537
85.7752
85.4071
85.187
85.0667
85.0144
85.0144
85.0667
85.187
85.4071
85.7752
86.3537
87.213
88.4214
90.0286
92.0496
94.4509
97.1455
100
-300
-300
-300
-300
-300
-300
-300
-300
-300
-300
-300
-300
-300
-300
100
97.1455
94.4509
92.0496
90.0286
88.4214
87.213
86.3537
85.7752
85.4071
85.187
85.0667
85.0144
85.0144
85.0667
85.187
85.4071
85.7752
86.3537
87.213
88.4214
90.0286
92.0496
94.4509
97.1455
100
-300
-300
-300
-300
-300
-300
-300
-300
-300
-300
100
94.4509
89.2129
84.545
80.6163
77.4922
75.1435
73.4731
72.3488
71.6333
71.2055
70.9717
70.8701
70.8701
70.9717
71.2055
71.6333
72.3488
73.4731
75.1435
77.4922
80.6163
84.545
89.2129
94.4509
100
-300
-300
-300
-300
-300
-300
-300
-300
-300
-300
-300
-300
-300
-300
100
94.4509
89.2129
84.545
80.6163
77.4922
75.1435
73.4731
72.3488
71.6334
71.2055
70.9717
70.8701
70.8701
70.9717
71.2055
71.6333
72.3488
73.4731
75.1435
77.4922
80.6163
84.545
89.2129
94.4509
100
-300
-300
-300
-300
-300
-300
-300
-300
-300
-300
100
92.0496
84.545
77.8572
72.2287
67.7531
64.3884
61.9956
60.3852
59.3604
58.7477
58.4129
58.2673
58.2673
58.4129
58.7477
59.3604
60.3852
61.9956
64.3884
67.7531
72.2287
77.8572
84.545
92.0496
100
-300
-300
-300
-300
-300
-300
-300
-300
-300
-300
-300
-300
-300
-300
100
92.0496
84.545
77.8572
72.2288
67.7531
64.3884
61.9956
60.3852
59.3604
58.7477
58.4129
58.2673
58.2673
58.4129
58.7477
59.3604
60.3852
61.9956
64.3884
67.7531
72.2287
77.8572
84.545
92.0496
100
-300
-300
-300
-300
-300
-300
-300
-300
-300
-300
100
90.0285
80.6163
72.2287
65.1699
59.5571
55.3378
52.3374
50.3182
49.0334
48.2653
47.8456
47.6631
47.6631
47.8456
48.2653
49.0334
50.3182
52.3374
55.3378
59.5571
65.1699
72.2287
80.6163
90.0285
100
-300
-300
-300
-300
-300
-300
-300
-300
-300
-300
-300
-300
-300
-300
100
90.0286
80.6163
72.2288
65.17
59.5572
55.3379
52.3375
50.3183
49.0335
48.2653
47.8456
47.6632
47.6632
47.8456
48.2653
49.0335
50.3182
52.3374
55.3378
59.5571
65.1699
72.2287
80.6163
90.0285
100
-300
-300
-300
-300
-300
-300
-300
-300
-300
-300
100
88.4213
77.4921
67.7529
59.557
53.0403
48.1418
44.6586
42.3148
40.8236
39.932
39.445
39.2333
39.2333
39.445
39.932
40.8236
42.3148
44.6586
48.1418
53.0403
59.557
67.7529
77.4921
88.4213
100
-300
-300
-300
-300
-300
-300
-300
-300
-300
-300
-300
-300
-300
-300
100
88.4214
77.4922
67.7531
59.5572
53.0405
48.142
44.6589
42.315
40.8238
39.9322
39.4452
39.2334
39.2334
39.4451
39.9321
40.8236
42.3148
44.6586
48.1418
53.0403
59.557
67.7529
77.4921
88.4213
100
-300
-300
-300
-300
-300
-300
-300
-300
-300
-300
100
87.2129
75.1432
64.388
55.3373
48.1414
42.7327
38.887
36.2994
34.6532
33.6692
33.1316
32.898
32.898
33.1316
33.6692
34.6532
36.2994
38.887
42.7327
48.1414
55.3373
64.388
75.1432
87.2129
100
-300
-300
-300
-300
-300
-300
-300
-300
-300
-300
-300
-300
-300
-300
100
87.213
75.1435
64.3884
55.3379
48.142
42.7333
38.8876
36.3
34.6538
33.6697
33.1321
32.8983
32.8982
33.1318
33.6693
34.6533
36.2994
38.887
42.7327
48.1414
55.3373
64.388
75.1432
87.2129
100
-300
-300
-300
-300
-300
-300
-300
-300
-300
-300
100
86.3532
73.4722
61.9944
52.3359
44.6571
38.8858
34.7825
32.0218
30.2657
29.216
28.6427
28.3934
28.3934
28.6427
29.216
30.2657
32.0218
34.7825
38.8858
44.6571
52.3359
61.9944
73.4722
86.3532
100
-300
-300
-300
-300
-300
-300
-300
-300
-300
-300
-300
-300
-300
-300
100
86.3536
73.473
61.9955
52.3374
44.6588
38.8875
34.7842
32.0235
30.2672
29.2174
28.6438
28.3943
28.3941
28.6432
29.2164
30.266
32.022
34.7826
38.8858
44.6571
52.3359
61.9944
73.4722
86.3532
100
-300
-300
-300
-300
-300
-300
-300
-300
-300
-300
100
85.7741
72.3466
60.382
50.3143
42.3105
36.2951
32.0186
29.1415
27.3116
26.2178
25.6204
25.3607
25.3607
25.6204
26.2178
27.3116
29.1415
32.0186
36.2951
42.3105
50.3143
60.382
72.3466
85.7741
100
-300
-300
-300
-300
-300
-300
-300
-300
-300
-300
-300
-300
-300
-300
100
85.7752
72.3487
60.3851
50.3181
42.3147
36.2996
32.0231
29.1459
27.3155
26.2212
25.6233
25.3631
25.3625
25.6217
26.2187
27.3122
29.1419
32.0188
36.2952
42.3105
50.3143
60.382
72.3466
85.7741
100
-300
-300
-300
-300
-300
-300
-300
-300
-300
-300
100
85.4043
71.6279
59.3526
49.0237
40.8124
34.6415
30.2545
27.3033
25.4263
24.3045
23.6918
23.4255
23.4255
23.6918
24.3045
25.4263
27.3033
30.2545
34.6415
40.8124
49.0237
59.3526
71.6279
85.4043
100
-300
-300
-300
-300
-300
-300
-300
-300
-300
-300
-300
-300
-300
-300
100
85.407
71.6332
59.3601
49.033
40.8229
34.6526
30.2657
27.3141
25.4362
24.3132
23.6991
23.4314
23.43
23.6951
24.3068
25.4278
27.3043
30.255
34.6417
40.8125
49.0237
59.3525
71.6278
85.4042
100
-300
-300
-300
-300
-300
-300
-300
-300
-300
-300
100
85.1802
71.1924
58.7289
48.2419
39.9051
33.64
29.1863
26.1903
24.2849
23.1461
22.5242
22.2539
22.2539
22.5242
23.1461
24.2849
26.1903
29.1863
33.64
39.9051
48.2419
58.7289
71.1924
85.1802
100
-300
-300
-300
-300
-300
-300
-300
-300
-300
-300
-300
-300
-300
-300
100
85.1868
71.2051
58.7469
48.2641
39.9302
33.6665
29.213
26.216
24.3085
23.1669
22.5418
22.2681
22.2648
22.5322
23.1516
24.2885
26.1925
29.1875
33.6406
39.9053
48.2419
58.7288
71.1923
85.1801
100
-300
-300
-300
-300
-300
-300
-300
-300
-300
-300
100
85.0513
70.9419
58.3701
47.7921
39.3832
33.0639
28.5719
25.5502
23.6285
22.48
21.8528
21.5803
21.5803
21.8528
22.48
23.6285
25.5502
28.5719
33.0639
39.3832
47.7921
58.3701
70.9419
85.0513
100
-300
-300
-300
-300
-300
-300
-300
-300
-300
-300
-300
-300
-300
-300
100
85.0663
70.9709
58.4113
47.8428
39.4404
33.1247
28.6331
25.6091
23.6827
22.5279
21.8932
21.6128
21.6053
21.8711
22.4927
23.6368
25.5553
28.5747
33.0653
39.3835
47.7919
58.3697
70.9415
85.0511
100
-300
-300
-300
-300
-300
-300
-300
-300
-300
-300
100
84.9808
70.8048
58.1738
47.546
39.0977
32.7489
28.2359
25.2002
23.2696
22.1158
21.4858
21.212
21.212
21.4858
22.1158
23.2696
25.2002
28.2359
32.7489
39.0977
47.546
58.1738
70.8048
84.9808
100
-300
-300
-300
-300
-300
-300
-300
-300
-300
-300
-300
-300
-300
-300
100
85.0136
70.8683
58.2639
47.6571
39.2233
32.8822
28.3704
25.3298
23.3891
22.2214
21.5749
21.2838
21.2672
21.5262
22.1438
23.2879
25.2114
28.242
32.7517
39.0983
47.5455
58.1727
70.8037
84.9801
100
-300
-300
-300
-300
-300
-300
-300
-300
-300
-300
100
84.944
70.7333
58.0715
47.4179
38.949
32.5848
28.061
25.018
23.0828
21.9263
21.2948
21.0203
21.0203
21.2948
21.9263
23.0828
25.018
28.061
32.5848
38.949
47.4179
58.0715
70.7333
84.944
100
-300
-300
-300
-300
-300
-300
-300
-300
-300
-300
-300
-300
-300
-300
100
85.0129
70.8666
58.2605
47.651
39.2128
32.8653
28.3442
25.2912
23.3351
22.1494
21.4833
21.1724
21.1372
21.3802
21.9855
23.1214
25.0414
28.0737
32.5904
38.95
47.4163
58.0689
70.7308
84.9425
100
-300
-300
-300
-300
-300
-300
-300
-300
-300
-300
100
84.9258
70.6979
58.0208
47.3543
38.8752
32.5035
27.9742
24.9276
22.9901
21.8323
21.2
20.9253
20.9253
21.2
21.8323
22.9901
24.9276
27.9742
32.5035
38.8752
47.3543
58.0208
70.6979
84.9258
100
-300
-300
-300
-300
-300
-300
-300
-300
-300
-300
-300
-300
-300
-300
100
85.0639
70.9651
58.4
47.8224
39.4055
33.0679
28.5451
25.4792
23.5003
22.2839
21.5821
21.2335
21.1622
21.3731
21.952
23.0681
24.9746
27.9994
32.5139
38.8762
47.35
58.0143
70.6919
84.9222
100
-300
-300
-300
-300
-300
-300
-300
-300
-300
-300
100
84.9171
70.6811
57.9968
47.3242
38.8403
32.4649
27.9332
24.8849
22.9463
21.7878
21.1552
20.8803
20.8803
21.1552
21.7878
22.9463
24.8849
27.9332
32.4649
38.8403
47.3242
57.9968
70.6811
84.9171
100
-300
-300
-300
-300
-300
-300
-300
-300
-300
-300
-300
-300
-300
-300
100
85.1821
71.1937
58.7245
48.2234
39.8603
33.5521
29.0346
25.9511
23.9342
22.6634
21.8964
21.4785
21.3398
21.4904
22.0193
23.0965
24.9748
27.9804
32.4832
38.8399
47.3131
57.9816
70.6674
84.9091
100
-300
-300
-300
-300
-300
-300
-300
-300
-300
-300
100
84.9132
70.6735
57.9859
47.3106
38.8245
32.4475
27.9146
24.8655
22.9265
21.7677
21.135
20.86
20.86
21.135
21.7677
22.9265
24.8655
27.9146
32.4475
38.8245
47.3106
57.9859
70.6735
84.9132
100
-300
-300
-300
-300
-300
-300
-300
-300
-300
-300
-300
-300
-300
-300
100
85.3989
71.6136
59.3214
48.9623
40.7005
34.4505
29.9479
26.838
24.7576
23.3931
22.5119
21.9712
21.7126
21.7559
22.1954
23.2028
25.0295
27.9987
32.477
38.8185
47.2842
57.9519
70.6432
84.8955
100
-300
-300
-300
-300
-300
-300
-300
-300
-300
-300
100
84.9115
70.6702
57.9812
47.3047
38.8177
32.44
27.9066
24.8572
22.9179
21.759
21.1262
20.8512
20.8512
21.1262
21.759
22.9179
24.8572
27.9066
32.44
38.8177
47.3047
57.9812
70.6702
84.9115
100
-300
-300
-300
-300
-300
-300
-300
-300
-300
-300
-300
-300
-300
-300
100
85.7624
72.3177
60.3235
50.2047
42.1165
35.9691
31.4975
28.3495
26.1674
24.6482
23.5753
22.8265
22.3646
22.2257
22.5137
23.4029
25.1419
28.0484
32.4832
38.7959
47.2452
57.908
70.6057
84.8739
100
-300
-300
-300
-300
-300
-300
-300
-300
-300
-300
100
84.9108
70.6689
57.9792
47.3023
38.8149
32.4369
27.9032
24.8537
22.9144
21.7554
21.1226
20.8475
20.8475
21.1226
21.7554
22.9144
24.8537
27.9032
32.4369
38.8149
47.3023
57.9792
70.6689
84.9108
100
-300
-300
-300
-300
-300
-300
-300
-300
-300
-300
-300
-300
-300
-300
100
86.335
73.4275
61.9045
52.1682
44.3597
38.3827
33.9704
30.7724
28.437
26.6747
25.2941
24.2081
23.4161
22.9824
23.0265
23.7259
25.3239
28.1287
32.4915
38.755
47.1748
57.8278
70.5361
84.8334
100
-300
-300
-300
-300
-300
-300
-300
-300
-300
-300
100
84.9105
70.6683
57.9785
47.3013
38.8137
32.4356
27.9019
24.8523
22.913
21.754
21.1212
20.8461
20.8461
21.1212
21.754
22.913
24.8523
27.9019
32.4356
38.8137
47.3013
57.9785
70.6683
84.9105
100
-300
-300
-300
-300
-300
-300
-300
-300
-300
-300
-300
-300
-300
-300
100
87.1879
75.0817
64.2638
55.104
47.7233
42.0159
37.7115
34.4586
31.9079
29.7834
27.9294
26.3189
25.0139
24.1254
23.7961
24.2066
25.59
28.2386
32.4883
38.6719
47.0414
57.6767
70.4038
84.7557
100
-300
-300
-300
-300
-300
-300
-300
-300
-300
-300
100
84.9104
70.6681
57.9782
47.3009
38.8133
32.4352
27.9014
24.8518
22.9124
21.7535
21.1206
20.8456
20.8456
21.1206
21.7535
22.9124
24.8518
27.9014
32.4352
38.8133
47.3009
57.9782
70.6681
84.9104
100
-300
-300
-300
-300
-300
-300
-300
-300
-300
-300
-300
-300
-300
-300
100
88.3904
77.4155
67.5969
59.2605
52.5016
47.2026
43.0869
39.7954
36.9691
34.3338
31.778
29.38
27.3101
25.7522
24.8805
24.875
25.9495
28.3706
32.4511
38.5093
46.7953
57.398
70.1567
84.6083
100
-300
-300
-300
-300
-300
-300
-300
-300
-300
-300
100
84.9104
70.6681
57.9781
47.3008
38.8132
32.435
27.9012
24.8516
22.9122
21.7533
21.1204
20.8454
20.8454
21.1204
21.7533
22.9122
24.8516
27.9012
32.435
38.8132
47.3008
57.9781
70.6681
84.9104
100
-300
-300
-300
-300
-300
-300
-300
-300
-300
-300
-300
-300
-300
-300
100
89.9941
80.5304
72.0523
64.8304
58.9304
54.2229
50.4247
47.1588
44.0276
40.7162
37.1436
33.5935
30.4259
27.9301
26.3135
25.7434
26.3989
28.5063
32.3442
38.2119
46.3603
56.9002
69.7045
84.3317
100
-300
-300
-300
-300
-300
-300
-300
-300
-300
-300
100
84.9104
70.668
57.978
47.3007
38.8131
32.4349
27.9012
24.8516
22.9122
21.7532
21.1203
20.8453
20.8453
21.1203
21.7532
22.9122
24.8516
27.9012
32.4349
38.8131
47.3007
57.978
70.668
84.9104
100
-300
-300
-300
-300
-300
-300
-300
-300
-300
-300
-300
-300
-300
-300
100
92.016
84.4607
77.6825
71.888
67.1133
63.2245
59.939
56.8544
53.4855
49.3572
44.3001
39.0836
34.3972
30.6563
28.079
26.7917
26.9141
28.6128
32.1185
37.7046
45.6273
56.0398
68.8904
83.8111
100
-300
-300
-300
-300
-300
-300
-300
-300
-300
-300
100
84.9104
70.668
57.978
47.3007
38.8131
32.4349
27.9012
24.8515
22.9122
21.7532
21.1203
20.8453
20.8453
21.1203
21.7532
22.9122
24.8515
27.9012
32.4349
38.8131
47.3007
57.978
70.668
84.9104
100
-300
-300
-300
-300
-300
-300
-300
-300
-300
-300
-300
-300
-300
-300
100
94.4238
89.1445
84.4019
80.3341
76.9534
74.14
71.6401
69.0467
65.7435
60.8345
53.4389
45.7966
39.0982
33.8132
30.0889
27.9581
27.4487
28.6458
31.7168
36.8988
44.4542
54.6031
67.4403
82.8075
100
-300
-300
-300
-300
-300
-300
-300
-300
-300
-300
100
84.9104
70.668
57.978
47.3007
38.8131
32.4349
27.9011
24.8515
22.9121
21.7532
21.1203
20.8453
20.8453
21.1203
21.7532
22.9121
24.8515
27.9011
32.4349
38.8131
47.3007
57.978
70.668
84.9104
100
-300
-300
-300
-300
-300
-300
-300
-300
-300
-300
-300
-300
-300
-300
100
97.1302
94.4123
91.9684
89.8669
88.1087
86.6189
85.2325
83.6418
81.215
76.3872
64.4922
53.3068
44.1454
37.1338
32.1746
29.1402
27.9393
28.5594
31.0889
35.7129
42.6859
52.3001
64.8762
80.7628
100
-300
-300
-300
-300
-300
-300
-300
-300
-300
-300
100
84.9104
70.668
57.978
47.3007
38.8131
32.4349
27.9011
24.8515
22.9121
21.7532
21.1203
20.8453
20.8453
21.1203
21.7532
22.9121
24.8515
27.9011
32.4349
38.8131
47.3007
57.978
70.668
84.9104
100
-300
-300
-300
-300
-300
-300
-300
-300
-300
-300
-300
-300
-300
-300
100
100
100
100
100
100
100
100
100
100
100
76.1844
60.4264
48.8275
40.2193
34.1144
30.2169
28.323
28.323
30.2169
34.1144
40.2193
48.8275
60.4264
76.1844
100
100
100
100
100
100
100
100
100
100
100
100
84.9104
70.668
57.978
47.3007
38.8131
32.4349
27.9011
24.8515
22.9121
21.7532
21.1203
20.8453
20.8453
21.1203
21.7532
22.9121
24.8515
27.9011
32.4349
38.8131
47.3007
57.978
70.668
84.9104
100
-300
-300
-300
-300
-300
-300
-300
-300
-300
-300
-300
-300
-300
-300
-300
-300
-300
-300
-300
-300
-300
-300
-300
-300
100
80.7628
64.8762
52.3001
42.6859
35.7129
31.0889
28.5594
27.9393
29.1402
32.1746
37.1338
44.1454
53.3068
64.4922
76.3872
81.215
83.6418
85.2325
86.6189
88.1087
89.8669
91.9684
94.4123
97.1302
100
100
84.9104
70.668
57.978
47.3007
38.8131
32.4349
27.9011
24.8515
22.9121
21.7532
21.1203
20.8453
20.8453
21.1203
21.7532
22.9121
24.8515
27.9011
32.4349
38.8131
47.3007
57.978
70.668
84.9104
100
-300
-300
-300
-300
-300
-300
-300
-300
-300
-300
-300
-300
-300
-300
-300
-300
-300
-300
-300
-300
-300
-300
-300
-300
100
82.8075
67.4403
54.6031
44.4542
36.8988
31.7168
28.6458
27.4486
27.9581
30.0889
33.8132
39.0982
45.7966
53.4389
60.8345
65.7434
69.0467
71.64
74.14
76.9534
80.3341
84.4019
89.1445
94.4238
100
100
84.9104
70.668
57.978
47.3007
38.8131
32.4349
27.9011
24.8515
22.9121
21.7532
21.1203
20.8453
20.8453
21.1203
21.7532
22.9121
24.8515
27.9011
32.4349
38.8131
47.3007
57.978
70.668
84.9104
100
-300
-300
-300
-300
-300
-300
-300
-300
-300
-300
-300
-300
-300
-300
-300
-300
-300
-300
-300
-300
-300
-300
-300
-300
100
83.8111
68.8904
56.0398
45.6273
37.7046
32.1185
28.6127
26.9141
26.7917
28.079
30.6563
34.3971
39.0836
44.3
49.3572
53.4855
56.8544
59.939
63.2244
67.1133
71.888
77.6824
84.4607
92.016
100
100
84.9104
70.668
57.978
47.3007
38.8131
32.4349
27.9011
24.8515
22.9121
21.7532
21.1203
20.8453
20.8453
21.1203
21.7532
22.9121
24.8515
27.9011
32.4349
38.8131
47.3007
57.978
70.668
84.9104
100
-300
-300
-300
-300
-300
-300
-300
-300
-300
-300
-300
-300
-300
-300
-300
-300
-300
-300
-300
-300
-300
-300
-300
-300
100
84.3317
69.7045
56.9001
46.3602
38.2118
32.3441
28.5062
26.3988
25.7433
26.3134
27.93
30.4258
33.5934
37.1435
40.7161
44.0275
47.1587
50.4246
54.2228
58.9303
64.8303
72.0522
80.5304
89.994
100
100
84.9104
70.668
57.978
47.3007
38.8131
32.4349
27.9011
24.8515
22.9121
21.7532
21.1203
20.8453
20.8453
21.1203
21.7532
22.9121
24.8515
27.9011
32.4349
38.8131
47.3007
57.978
70.668
84.9104
100
-300
-300
-300
-300
-300
-300
-300
-300
-300
-300
-300
-300
-300
-300
-300
-300
-300
-300
-300
-300
-300
-300
-300
-300
100
84.6083
70.1566
57.3978
46.7951
38.509
32.4508
28.3704
25.9493
24.8747
24.8802
25.7519
27.3098
29.3797
31.7777
34.3335
36.9688
39.7951
43.0866
47.2023
52.5014
59.2603
67.5968
77.4153
88.3903
100
100
84.9104
70.668
57.978
47.3007
38.8131
32.4349
27.9011
24.8515
22.9121
21.7532
21.1203
20.8453
20.8453
21.1203
21.7532
22.9121
24.8515
27.9011
32.4349
38.8131
47.3007
57.978
70.668
84.9104
100
-300
-300
-300
-300
-300
-300
-300
-300
-300
-300
-300
-300
-300
-300
-300
-300
-300
-300
-300
-300
-300
-300
-300
-300
100
84.7555
70.4035
57.6762
47.0408
38.6712
32.4876
28.2378
25.5892
24.2058
23.7952
24.1245
25.013
26.318
27.9286
29.7826
31.9071
34.4578
37.7108
42.0152
47.7226
55.1034
64.2634
75.0814
87.1878
100
100
84.9104
70.668
57.978
47.3007
38.8131
32.4349
27.9011
24.8515
22.9121
21.7532
21.1203
20.8453
20.8453
21.1203
21.7532
22.9121
24.8515
27.9011
32.4349
38.8131
47.3007
57.978
70.668
84.9104
100
-300
-300
-300
-300
-300
-300
-300
-300
-300
-300
-300
-300
-300
-300
-300
-300
-300
-300
-300
-300
-300
-300
-300
-300
100
84.8329
70.5352
57.8266
47.1732
38.7532
32.4895
28.1266
25.3217
23.7237
23.0242
22.9801
23.4138
24.2058
25.2918
26.6725
28.4348
30.7702
33.9683
38.3807
44.358
52.1667
61.9033
73.4266
86.3346
100
100
84.9104
70.668
57.978
47.3007
38.8131
32.4349
27.9011
24.8515
22.9121
21.7532
21.1203
20.8453
20.8453
21.1203
21.7532
22.9121
24.8515
27.9011
32.4349
38.813
47.3007
57.978
70.668
84.9104
100
-300
-300
-300
-300
-300
-300
-300
-300
-300
-300
-300
-300
-300
-300
-300
-300
-300
-300
-300
-300
-300
-300
-300
-300
100
84.8727
70.6034
57.9048
47.2411
38.7913
32.4781
28.0429
25.1362
23.3971
22.5078
22.2198
22.3586
22.8206
23.5694
24.6423
26.1617
28.3438
31.4921
35.964
42.1119
50.2007
60.3203
72.3155
85.7613
100
100
84.9104
70.668
57.978
47.3007
38.8131
32.4349
27.9011
24.8515
22.9121
21.7532
21.1203
20.8453
20.8452
21.1203
21.7532
22.9121
24.8515
27.9011
32.4348
38.813
47.3006
57.9779
70.6679
84.9103
100
-300
-300
-300
-300
-300
-300
-300
-300
-300
-300
-300
-300
-300
-300
-300
-300
-300
-300
-300
-300
-300
-300
-300
-300
100
84.8926
70.6376
57.9439
47.2742
38.807
32.4644
27.9852
25.0154
23.1884
22.1808
21.7412
21.6979
21.9565
22.4973
23.3785
24.7432
26.824
29.9344
34.4379
40.6891
48.9525
59.3136
71.6081
85.3961
100
100
84.9104
70.668
57.978
47.3007
38.8131
32.4349
27.9011
24.8515
22.9121
21.7532
21.1203
20.8452
20.8452
21.1203
21.7531
22.9121
24.8514
27.901
32.4347
38.8128
47.3004
57.9778
70.6678
84.9103
100
-300
-300
-300
-300
-300
-300
-300
-300
-300
-300
-300
-300
-300
-300
-300
-300
-300
-300
-300
-300
-300
-300
-300
-300
100
84.9022
70.6541
57.9626
47.2894
38.8124
32.453
27.9482
24.9413
23.0622
21.9846
21.4555
21.3047
21.4435
21.8615
22.6287
23.9
25.9177
29.0026
33.5221
39.833
48.1999
58.7058
71.1806
85.1753
100
100
84.9104
70.668
57.978
47.3007
38.8131
32.4349
27.9011
24.8515
22.9121
21.7532
21.1203
20.8452
20.8452
21.1202
21.7531
22.912
24.8513
27.9007
32.4344
38.8125
47.3
57.9774
70.6675
84.9101
100
-300
-300
-300
-300
-300
-300
-300
-300
-300
-300
-300
-300
-300
-300
-300
-300
-300
-300
-300
-300
-300
-300
-300
-300
100
84.9066
70.6615
57.9709
47.2957
38.8135
32.4448
27.9259
24.8983
22.9899
21.8728
21.2933
21.0821
21.1535
21.5023
22.2048
23.4224
25.4032
28.472
32.9993
39.3434
47.7688
58.3572
70.9352
85.0485
100
100
84.9104
70.668
57.978
47.3007
38.8131
32.4349
27.9011
24.8515
22.9121
21.7532
21.1203
20.8452
20.8452
21.1201
21.7529
22.9117
24.8508
27.9002
32.4336
38.8115
47.299
57.9764
70.6667
84.9097
100
-300
-300
-300
-300
-300
-300
-300
-300
-300
-300
-300
-300
-300
-300
-300
-300
-300
-300
-300
-300
-300
-300
-300
-300
100
84.9082
70.6642
57.9737
47.2974
38.8125
32.4392
27.9129
24.8743
22.9503
21.8121
21.2056
20.9621
20.9973
21.3088
21.9762
23.1645
25.1247
28.1843
32.7153
39.0769
47.5338
58.1669
70.8012
84.9793
100
100
84.9104
70.668
57.978
47.3007
38.8131
32.4349
27.9011
24.8515
22.9121
21.7532
21.1203
20.8452
20.8451
21.1199
21.7525
22.9111
24.8499
27.8988
32.4319
38.8094
47.2967
57.9741
70.6649
84.9087
100
-300
-300
-300
-300
-300
-300
-300
-300
-300
-300
-300
-300
-300
-300
-300
-300
-300
-300
-300
-300
-300
-300
-300
-300
100
84.9081
70.6639
57.9731
47.2961
38.8101
32.4346
27.905
24.8611
22.9294
21.7806
21.1603
20.9003
20.917
21.2094
21.8587
23.0317
24.9811
28.0357
32.5683
38.9387
47.4118
58.0681
70.7316
84.9433
100
100
84.9104
70.668
57.978
47.3007
38.8131
32.4349
27.9011
24.8515
22.9121
21.7531
21.1202
20.845
20.8448
21.1195
21.7517
22.9098
24.8479
27.8959
32.4279
38.8046
47.2914
57.9691
70.6609
84.9064
100
-300
-300
-300
-300
-300
-300
-300
-300
-300
-300
-300
-300
-300
-300
-300
-300
-300
-300
-300
-300
-300
-300
-300
-300
100
84.9062
70.6605
57.9687
47.2913
38.805
32.4293
27.8987
24.853
22.9181
21.7644
21.1378
20.8698
20.8776
21.1606
21.801
22.9664
24.9104
27.9624
32.4957
38.8704
47.3514
58.0192
70.6971
84.9254
100
100
84.9104
70.668
57.978
47.3007
38.8131
32.4349
27.9011
24.8515
22.9121
21.7531
21.1201
20.8448
20.8443
21.1186
21.7501
22.907
24.8436
27.8897
32.4197
38.7944
47.2802
57.9582
70.6521
84.9015
100
-300
-300
-300
-300
-300
-300
-300
-300
-300
-300
-300
-300
-300
-300
-300
-300
-300
-300
-300
-300
-300
-300
-300
-300
100
84.9014
70.652
57.958
47.2802
38.7946
32.4203
27.891
24.8458
22.9107
21.7556
21.1265
20.8552
20.8589
21.1376
21.7739
22.9357
24.8772
27.9278
32.4614
38.8381
47.3229
57.996
70.6807
84.917
100
100
84.9104
70.668
57.978
47.3007
38.8131
32.4349
27.9011
24.8515
22.9121
21.753
21.1198
20.8443
20.8433
21.1167
21.7468
22.9016
24.8351
27.8773
32.4028
38.7736
47.257
57.9355
70.6338
84.8912
100
-300
-300
-300
-300
-300
-300
-300
-300
-300
-300
-300
-300
-300
-300
-300
-300
-300
-300
-300
-300
-300
-300
-300
-300
100
84.8911
70.6337
57.9354
47.2569
38.7737
32.4031
27.8778
24.836
22.9031
21.7491
21.12
20.8479
20.8502
21.1272
21.7616
22.9219
24.8622
27.9123
32.446
38.8236
47.31
57.9856
70.6734
84.9131
100
100
84.9104
70.668
57.978
47.3007
38.8131
32.4349
27.9011
24.8515
22.912
21.7528
21.1194
20.8434
20.8415
21.1133
21.7407
22.8913
24.8188
27.8533
32.3701
38.7326
47.2108
57.8899
70.5965
84.8701
100
-300
-300
-300
-300
-300
-300
-300
-300
-300
-300
-300
-300
-300
-300
-300
-300
-300
-300
-300
-300
-300
-300
-300
-300
100
84.8701
70.5965
57.8899
47.2108
38.7327
32.3702
27.8535
24.8192
22.8919
21.7416
21.1146
20.8433
20.8457
21.1223
21.7562
22.9159
24.8558
27.9056
32.4394
38.8173
47.3045
57.9811
70.6702
84.9115
100
100
84.9104
70.668
57.978
47.3007
38.8131
32.4349
27.9011
24.8514
22.9118
21.7524
21.1187
20.8418
20.8383
21.1072
21.7298
22.8727
24.7891
27.8091
32.309
38.6554
47.1226
57.8016
70.5237
84.8285
100
-300
-300
-300
-300
-300
-300
-300
-300
-300
-300
-300
-300
-300
-300
-300
-300
-300
-300
-300
-300
-300
-300
-300
-300
100
84.8285
70.5237
57.8016
47.1226
38.6554
32.3091
27.8091
24.7893
22.8729
21.7301
21.1077
20.839
20.8427
21.1198
21.7538
22.9133
24.8531
27.9028
32.4366
38.8147
47.3022
57.9792
70.6688
84.9108
100
100
84.9104
70.668
57.978
47.3007
38.8131
32.4349
27.9011
24.8513
22.9116
21.7519
21.1174
20.8391
20.833
21.0969
21.7111
22.8407
24.7377
27.7315
32.2004
38.5157
46.9604
57.6366
70.3852
84.7485
100
-300
-300
-300
-300
-300
-300
-300
-300
-300
-300
-300
-300
-300
-300
-300
-300
-300
-300
-300
-300
-300
-300
-300
-300
100
84.7485
70.3852
57.6366
46.9604
38.5157
32.2004
27.7315
24.7377
22.8408
21.7112
21.0971
20.8332
20.8395
21.1178
21.7524
22.9121
24.8519
27.9017
32.4355
38.8137
47.3012
57.9784
70.6683
84.9105
100
100
84.9104
70.668
57.978
47.3007
38.8131
32.4349
27.901
24.8511
22.9112
21.751
21.1154
20.8349
20.8244
21.0805
21.681
22.7887
24.6528
27.6018
32.0159
38.2739
46.6736
57.3379
70.1289
84.5976
100
-300
-300
-300
-300
-300
-300
-300
-300
-300
-300
-300
-300
-300
-300
-300
-300
-300
-300
-300
-300
-300
-300
-300
-300
100
84.5976
70.1289
57.3379
46.6736
38.2739
32.0159
27.6018
24.6529
22.7887
21.6811
21.0806
20.8245
20.835
21.1156
21.7512
22.9114
24.8514
27.9012
32.4351
38.8133
47.3009
57.9782
70.6681
84.9104
100
100
84.9104
70.668
57.978
47.3007
38.813
32.4348
27.9009
24.8509
22.9106
21.7497
21.1125
20.8287
20.8117
21.0557
21.6352
22.7085
24.5204
27.396
31.7172
37.8733
46.1854
56.8137
69.6643
84.316
100
-300
-300
-300
-300
-300
-300
-300
-300
-300
-300
-300
-300
-300
-300
-300
-300
-300
-300
-300
-300
-300
-300
-300
-300
100
84.316
69.6643
56.8137
46.1854
37.8733
31.7172
27.396
24.5204
22.7086
21.6353
21.0557
20.8117
20.8287
21.1126
21.7497
22.9107
24.851
27.901
32.4349
38.8131
47.3008
57.9781
70.6681
84.9104
100
100
84.9104
70.668
57.978
47.3007
38.813
32.4348
27.9008
24.8506
22.9099
21.7479
21.1084
20.8199
20.7937
21.0204
21.5694
22.592
24.3249
27.0867
31.2584
37.2406
45.3874
55.9207
68.8343
83.7887
100
-300
-300
-300
-300
-300
-300
-300
-300
-300
-300
-300
-300
-300
-300
-300
-300
-300
-300
-300
-300
-300
-300
-300
-300
100
83.7887
68.8343
55.9207
45.3874
37.2406
31.2584
27.0867
24.3249
22.592
21.5694
21.0204
20.7937
20.8199
21.1085
21.7479
22.9099
24.8506
27.9008
32.4348
38.8131
47.3007
57.978
70.668
84.9104
100
100
84.9104
70.668
57.978
47.3007
38.813
32.4347
27.9006
24.8502
22.9089
21.7455
21.1031
20.8084
20.7698
20.9732
21.4805
22.4327
24.0536
26.6491
30.5927
36.2924
44.1398
54.4454
67.3638
82.7753
100
-300
-300
-300
-300
-300
-300
-300
-300
-300
-300
-300
-300
-300
-300
-300
-300
-300
-300
-300
-300
-300
-300
-300
-300
100
82.7753
67.3638
54.4454
44.1398
36.2924
30.5927
26.6491
24.0536
22.4327
21.4805
20.9732
20.7698
20.8084
21.1031
21.7455
22.9089
24.8502
27.9006
32.4347
38.813
47.3007
57.978
70.668
84.9104
100
100
84.9104
70.668
57.978
47.3007
38.813
32.4347
27.9004
24.8497
22.9077
21.7426
21.0966
20.7941
20.7401
20.9141
21.3681
22.2287
23.701
26.0692
29.6871
34.9558
42.2912
52.0983
64.7724
80.7133
100
-300
-300
-300
-300
-300
-300
-300
-300
-300
-300
-300
-300
-300
-300
-300
-300
-300
-300
-300
-300
-300
-300
-300
-300
100
80.7133
64.7724
52.0983
42.2912
34.9558
29.6871
26.0692
23.701
22.2287
21.3681
20.9141
20.7401
20.7941
21.0966
21.7426
22.9077
24.8497
27.9004
32.4347
38.813
47.3007
57.978
70.668
84.9104
100
100
84.9104
70.668
57.978
47.3007
38.813
32.4346
27.9002
24.8492
22.9063
21.7393
21.089
20.7776
20.7055
20.8448
21.2353
21.9853
23.2746
25.3551
28.5443
33.2086
39.7428
48.5756
60.2816
76.0944
100
100
100
100
100
100
100
100
100
100
100
100
100
100
100
100
100
100
100
100
100
100
100
100
100
100
76.0944
60.2816
48.5756
39.7428
33.2086
28.5443
25.3551
23.2746
21.9853
21.2353
20.8448
20.7055
20.7776
21.089
21.7393
22.9063
24.8492
27.9002
32.4346
38.813
47.3007
57.978
70.668
84.9104
100
100
84.9104
70.668
57.978
47.3007
38.8129
32.4345
27.9
24.8486
22.9048
21.7358
21.0809
20.7598
20.668
20.7692
21.0894
21.7156
22.797
24.5445
27.2227
31.132
36.5787
43.8374
53.0968
64.2812
76.0944
80.7133
82.7753
83.7887
84.316
84.5976
84.7485
84.8285
84.8701
84.8911
84.9014
84.9061
84.908
84.908
84.9061
84.9014
84.8911
84.8701
84.8285
84.7485
84.5976
84.316
83.7887
82.7753
80.7133
76.0944
64.2812
53.0968
43.8374
36.5787
31.132
27.2227
24.5445
22.797
21.7156
21.0894
20.7692
20.668
20.7598
21.0809
21.7358
22.9048
24.8486
27.9
32.4345
38.8129
47.3007
57.978
70.668
84.9104
100
100
84.9104
70.668
57.978
47.3007
38.8129
32.4344
27.8998
24.848
22.9033
21.7322
21.0727
20.7418
20.63
20.6923
20.9403
21.4386
22.3035
23.7006
25.8347
28.9292
33.1878
38.7347
45.5148
53.0968
60.2816
64.7724
67.3638
68.8343
69.6643
70.1289
70.3852
70.5237
70.5965
70.6337
70.6519
70.6604
70.6637
70.6637
70.6604
70.6519
70.6337
70.5965
70.5237
70.3852
70.1289
69.6643
68.8343
67.3638
64.7724
60.2816
53.0968
45.5148
38.7347
33.1878
28.9292
25.8347
23.7006
22.3035
21.4386
20.9403
20.6923
20.63
20.7418
21.0727
21.7322
22.9033
24.848
27.8998
32.4344
38.8129
47.3007
57.978
70.668
84.9104
100
100
84.9104
70.668
57.978
47.3007
38.8129
32.4343
27.8996
24.8474
22.9019
21.7289
21.0651
20.7248
20.5941
20.6194
20.7987
21.1749
21.8328
22.8941
24.5071
26.8257
29.9725
33.9843
38.7347
43.8374
48.5756
52.0983
54.4454
55.9207
56.8137
57.3379
57.6366
57.8016
57.8898
57.9354
57.9579
57.9685
57.9725
57.9725
57.9685
57.9579
57.9354
57.8898
57.8016
57.6366
57.3379
56.8137
55.9207
54.4454
52.0983
48.5756
43.8374
38.7347
33.9843
29.9725
26.8257
24.5071
22.8941
21.8328
21.1749
20.7987
20.6194
20.5941
20.7248
21.0651
21.7289
22.9019
24.8474
27.8996
32.4343
38.8129
47.3007
57.978
70.668
84.9104
100
100
84.9104
70.668
57.978
47.3007
38.8129
32.4343
27.8994
24.847
22.9008
21.726
21.0583
20.7099
20.5624
20.5552
20.6736
20.9419
21.4169
22.1827
23.3404
24.99
27.2009
29.9725
33.1878
36.5787
39.7428
42.2912
44.1398
45.3874
46.1854
46.6736
46.9604
47.1226
47.2107
47.2569
47.2799
47.2908
47.295
47.295
47.2908
47.2799
47.2569
47.2107
47.1226
46.9604
46.6736
46.1854
45.3874
44.1398
42.2912
39.7428
36.5787
33.1878
29.9725
27.2009
24.99
23.3404
22.1827
21.4169
20.9419
20.6736
20.5552
20.5624
20.7099
21.0583
21.726
22.9008
24.847
27.8994
32.4343
38.8129
47.3007
57.978
70.668
84.9104
100
100
84.9104
70.6681
57.9781
47.3008
38.8131
32.4345
27.8995
24.8468
22.9
21.7238
21.0529
20.6978
20.5365
20.5023
20.5707
20.7502
21.0753
21.6003
22.3905
23.5077
24.99
26.8257
28.9292
31.132
33.2086
34.9558
36.2924
37.2406
37.8733
38.2739
38.5157
38.6554
38.7326
38.7735
38.7942
38.804
38.8078
38.8078
38.804
38.7942
38.7735
38.7326
38.6554
38.5157
38.2739
37.8733
37.2406
36.2924
34.9558
33.2086
31.132
28.9292
26.8257
24.99
23.5077
22.3905
21.6003
21.0753
20.7502
20.5707
20.5023
20.5365
20.6978
21.0529
21.7238
22.9
24.8468
27.8995
32.4345
38.8131
47.3008
57.9781
70.6681
84.9104
100
100
84.9105
70.6683
57.9784
47.3012
38.8135
32.4349
27.8999
24.847
22.8997
21.7225
21.0492
20.6887
20.5168
20.4618
20.4916
20.6029
20.8134
21.1555
21.6689
22.3905
23.3404
24.5071
25.8347
27.2227
28.5443
29.6871
30.5927
31.2584
31.7172
32.0159
32.2004
32.309
32.37
32.4027
32.4195
32.4274
32.4306
32.4306
32.4274
32.4195
32.4027
32.37
32.309
32.2004
32.0159
31.7172
31.2584
30.5927
29.6871
28.5443
27.2227
25.8347
24.5071
23.3404
22.3905
21.6689
21.1555
20.8134
20.6029
20.4916
20.4618
20.5168
20.6887
21.0492
21.7225
22.8997
24.847
27.8999
32.4349
38.8135
47.3012
57.9784
70.6683
84.9105
100
100
84.9108
70.6689
57.9792
47.3022
38.8146
32.4361
27.9011
24.8481
22.9006
21.7225
21.0475
20.6833
20.5036
20.4335
20.4355
20.4977
20.626
20.8377
21.1555
21.6003
22.1827
22.8941
23.7006
24.5445
25.3551
26.0692
26.6491
27.0867
27.396
27.6018
27.7315
27.8091
27.8532
27.8772
27.8896
27.8955
27.8979
27.8979
27.8955
27.8896
27.8772