# vtk DataFile Version 2.0
LBE two cylinders
ASCII
DATASET STRUCTURED_POINTS
DIMENSIONS 76 76 1
ASPECT_RATIO 1 1 1
ORIGIN 0 0 0
POINT_DATA 5776
SCALARS temp double 1
LOOKUP_TABLE default
100
100
100
100
100
100
100
100
100
100
100
100
100
100
100
100
100
100
100
100
100
100
100
100
100
100
-300
-300
-300
-300
-300
-300
-300
-300
-300
-300
-300
-300
-300
-300
100
100
100
100
100
100
100
100
100
100
100
100
100
100
100
100
100
100
100
100
100
100
100
100
100
100
-300
-300
-300
-300
-300
-300
-300
-300
-300
-300
100
97.8105
95.7152
93.7963
92.1143
90.7028
89.5688
88.6967
88.0554
87.606
87.3095
87.1323
87.05
87.05
87.1323
87.3095
87.606
88.0554
88.6967
89.5688
90.7028
92.1143
93.7963
95.7152
97.8105
100
-300
-300
-300
-300
-300
-300
-300
-300
-300
-300
-300
-300
-300
-300
100
97.8105
95.7153
93.7964
92.1143
90.7028
89.5688
88.6968
88.0554
87.6061
87.3096
87.1323
87.05
87.05
87.1323
87.3095
87.606
88.0554
88.6967
89.5688
90.7028
92.1143
93.7963
95.7152
97.8105
100
-300
-300
-300
-300
-300
-300
-300
-300
-300
-300
100
95.7152
91.6149
87.8597
84.568
81.8058
79.5867
77.8802
76.6252
75.7459
75.1657
74.8189
74.6578
74.6578
74.8189
75.1657
75.7459
76.6252
77.8802
79.5867
81.8058
84.568
87.8597
91.6149
95.7152
100
-300
-300
-300
-300
-300
-300
-300
-300
-300
-300
-300
-300
-300
-300
100
95.7153
91.615
87.8598
84.5681
81.8059
79.5869
77.8804
76.6254
75.746
75.1659
74.819
74.6579
74.6579
74.8189
75.1658
75.7459
76.6252
77.8802
79.5867
81.8058
84.568
87.8597
91.6149
95.7152
100
-300
-300
-300
-300
-300
-300
-300
-300
-300
-300
100
93.7963
87.8596
82.4227
77.6569
73.6578
70.4451
67.9745
66.1577
64.8847
64.0448
63.5427
63.3096
63.3096
63.5427
64.0448
64.8847
66.1577
67.9745
70.4451
73.6578
77.6569
82.4227
87.8596
93.7963
100
-300
-300
-300
-300
-300
-300
-300
-300
-300
-300
-300
-300
-300
-300
100
93.7964
87.8598
82.4229
77.6572
73.6582
70.4455
67.9749
66.158
64.8851
64.0452
63.543
63.3098
63.3098
63.5429
64.0449
64.8848
66.1577
67.9745
70.4451
73.6578
77.6569
82.4227
87.8596
93.7963
100
-300
-300
-300
-300
-300
-300
-300
-300
-300
-300
100
92.1141
84.5676
77.6565
71.5986
66.5154
62.4318
59.2916
56.9825
55.3646
54.2972
53.6592
53.3629
53.3629
53.6592
54.2972
55.3646
56.9825
59.2916
62.4318
66.5154
71.5986
77.6565
84.5676
92.1141
100
-300
-300
-300
-300
-300
-300
-300
-300
-300
-300
-300
-300
-300
-300
100
92.1143
84.5681
77.6572
71.5994
66.5163
62.4328
59.2926
56.9834
55.3655
54.298
53.6599
53.3635
53.3634
53.6595
54.2975
55.3648
56.9826
59.2917
62.4319
66.5154
71.5986
77.6566
84.5676
92.1141
100
-300
-300
-300
-300
-300
-300
-300
-300
-300
-300
100
90.7023
81.8048
73.6566
66.5144
60.5214
55.7072
52.0053
49.2832
47.376
46.1179
45.3658
45.0165
45.0165
45.3658
46.1179
47.376
49.2832
52.0053
55.7072
60.5214
66.5144
73.6566
81.8048
90.7023
100
-300
-300
-300
-300
-300
-300
-300
-300
-300
-300
-300
-300
-300
-300
100
90.7028
81.8059
73.6581
66.5162
60.5236
55.7095
52.0076
49.2854
47.3782
46.1198
45.3674
45.0179
45.0177
45.3666
46.1185
47.3765
49.2835
52.0055
55.7074
60.5215
66.5144
73.6566
81.8048
90.7023
100
-300
-300
-300
-300
-300
-300
-300
-300
-300
-300
100
89.5675
79.5843
70.4418
62.4283
55.7044
50.3032
46.15
43.0961
40.9567
39.5454
38.7017
38.31
38.31
38.7017
39.5454
40.9567
43.0961
46.15
50.3032
55.7044
62.4283
70.4418
79.5843
89.5675
100
-300
-300
-300
-300
-300
-300
-300
-300
-300
-300
-300
-300
-300
-300
100
89.5688
79.5867
70.4453
62.4325
55.7093
50.3084
46.1553
43.1013
40.9616
39.5498
38.7056
38.3132
38.3126
38.7037
39.5469
40.9578
43.0969
46.1504
50.3034
55.7045
62.4283
70.4419
79.5843
89.5675
100
-300
-300
-300
-300
-300
-300
-300
-300
-300
-300
100
88.6939
77.8747
67.9667
59.2824
51.9959
46.1429
41.6425
38.3335
36.0154
34.4862
33.5722
33.1478
33.1478
33.5722
34.4862
36.0154
38.3335
41.6425
46.1429
51.9959
59.2824
67.9667
77.8747
88.6939
100
-300
-300
-300
-300
-300
-300
-300
-300
-300
-300
-300
-300
-300
-300
100
88.6966
77.88
67.9744
59.2919
52.0067
46.1545
41.6543
38.345
36.0263
34.4961
33.5808
33.155
33.1536
33.5767
34.4896
36.0178
38.3351
41.6435
46.1435
51.9962
59.2825
67.9668
77.8747
88.6939
100
-300
-300
-300
-300
-300
-300
-300
-300
-300
-300
100
88.0492
76.6132
66.1405
56.9613
49.2598
43.0736
38.3171
34.82
32.3702
30.7543
29.7884
29.34
29.34
29.7884
30.7543
32.3702
34.82
38.3171
43.0736
49.2598
56.9613
66.1405
76.6132
88.0492
100
-300
-300
-300
-300
-300
-300
-300
-300
-300
-300
-300
-300
-300
-300
100
88.0551
76.6247
66.1569
56.9817
49.283
43.0985
38.3426
34.845
32.3937
30.7755
29.8069
29.3555
29.3525
29.7981
30.7615
32.3754
34.8235
38.3194
43.0749
49.2604
56.9616
66.1405
76.6132
88.0492
100
-300
-300
-300
-300
-300
-300
-300
-300
-300
-300
100
87.5931
75.7207
64.8485
55.3193
47.3243
40.9025
35.965
32.335
29.7922
28.1149
27.1124
26.647
26.647
27.1124
28.1149
29.7922
32.335
35.965
40.9025
47.3243
55.3193
64.8485
75.7207
87.5931
100
-300
-300
-300
-300
-300
-300
-300
-300
-300
-300
-300
-300
-300
-300
100
87.6054
75.7446
64.8826
55.3617
47.3727
40.9545
36.0182
32.387
29.8411
28.1592
27.1511
26.6794
26.6732
27.1328
28.1301
29.803
32.3423
35.9697
40.9052
47.3256
55.3198
64.8486
75.7206
87.593
100
-300
-300
-300
-300
-300
-300
-300
-300
-300
-300
100
87.2836
75.115
63.9717
54.2051
46.0109
39.4293
34.3692
30.649
28.0432
26.3244
25.2971
24.8201
24.8201
25.2971
26.3244
28.0432
30.649
34.3692
39.4293
46.0109
54.2051
63.9717
75.115
87.2836
100
-300
-300
-300
-300
-300
-300
-300
-300
-300
-300
-300
-300
-300
-300
100
87.3083
75.163
64.0403
54.2903
46.1084
39.5341
34.4764
30.754
28.142
26.4139
25.3752
24.8857
24.8731
25.3382
26.355
28.0649
30.6637
34.3785
39.4347
46.0136
54.206
63.9718
75.1148
87.2833
100
-300
-300
-300
-300
-300
-300
-300
-300
-300
-300
100
87.082
74.7205
63.4007
53.4794
45.1556
38.47
33.33
29.5512
26.9043
25.1586
24.1151
23.6307
23.6307
24.1151
25.1586
26.9043
29.5512
33.33
38.47
45.1556
53.4794
63.4007
74.7205
87.082
100
-300
-300
-300
-300
-300
-300
-300
-300
-300
-300
-300
-300
-300
-300
100
87.1299
74.8137
63.5337
53.645
45.3451
38.6739
33.5388
29.7559
27.0972
25.3334
24.2677
23.7589
23.7343
24.1955
25.2183
26.9468
29.5797
33.3479
38.4801
45.1604
53.4809
63.4004
74.7197
87.0814
100
-300
-300
-300
-300
-300
-300
-300
-300
-300
-300
100
86.9559
74.4738
63.0435
53.0255
44.6207
37.8701
32.6802
28.8647
26.1923
24.4296
23.3762
22.8871
22.8871
23.3762
24.4296
26.1923
28.8647
32.6802
37.8701
44.6207
53.0255
63.0435
74.4738
86.9559
100
-300
-300
-300
-300
-300
-300
-300
-300
-300
-300
-300
-300
-300
-300
100
87.0457
74.6484
63.293
53.3363
44.9766
38.2534
33.073
29.2503
26.5559
24.7596
23.6643
23.1292
23.0827
23.5279
24.5423
26.272
28.9181
32.7133
37.8885
44.629
53.0276
63.0424
74.4717
86.9544
100
-300
-300
-300
-300
-300
-300
-300
-300
-300
-300
100
86.88
74.3255
62.8288
52.7527
44.2992
37.5096
32.2897
28.4523
25.7645
23.9917
22.9322
22.4404
22.4404
22.9322
23.9917
25.7645
28.4523
32.2897
37.5096
44.2992
52.7527
62.8288
74.3255
86.88
100
-300
-300
-300
-300
-300
-300
-300
-300
-300
-300
-300
-300
-300
-300
100
87.0427
74.6415
63.2807
53.3161
44.9449
38.2057
33.004
29.1543
26.4272
24.5935
23.4581
22.8823
22.7973
23.2088
24.1968
25.9092
28.5486
32.3489
37.5418
44.3129
52.7549
62.8253
74.3205
86.8768
100
-300
-300
-300
-300
-300
-300
-300
-300
-300
-300
100
86.8362
74.2398
62.7048
52.5951
44.1135
37.3013
32.0641
28.214
25.5174
23.7388
22.6758
22.1824
22.1824
22.6758
23.7388
25.5174
28.214
32.0641
37.3013
44.1135
52.5951
62.7048
74.2398
86.8362
100
-300
-300
-300
-300
-300
-300
-300
-300
-300
-300
-300
-300
-300
-300
100
87.1204
74.7921
63.495
53.5811
45.2447
38.5224
33.3188
29.4487
26.6844
24.7995
23.6031
22.9617
22.8114
23.1626
24.099
25.7708
28.3816
32.1659
37.355
44.1342
52.5956
62.6954
74.2287
86.8292
100
-300
-300
-300
-300
-300
-300
-300
-300
-300
-300
100
86.8119
74.1921
62.6358
52.5074
44.0102
37.1855
31.9388
28.0816
25.3801
23.5982
22.5333
22.039
22.039
22.5333
23.5982
25.3801
28.0816
31.9388
37.1855
44.0102
52.5074
62.6358
74.1921
86.8119
100
-300
-300
-300
-300
-300
-300
-300
-300
-300
-300
-300
-300
-300
-300
100
87.291
75.124
63.9699
54.1735
45.9239
39.2542
34.0677
30.1799
27.3661
25.4052
24.1137
23.3669
23.1098
23.3607
24.2089
25.8078
28.3624
32.1066
37.2708
44.0389
52.5014
62.6135
74.1682
86.7971
100
-300
-300
-300
-300
-300
-300
-300
-300
-300
-300
100
86.7988
74.1666
62.5989
52.4605
43.955
37.1236
31.8717
28.0108
25.3066
23.523
22.4571
21.9623
21.9623
22.4571
23.523
25.3066
28.0108
31.8717
37.1236
43.955
52.4605
62.5989
74.1666
86.7988
100
-300
-300
-300
-300
-300
-300
-300
-300
-300
-300
-300
-300
-300
-300
100
87.5787
75.684
64.7728
55.1784
47.081
40.5085
35.3617
31.4568
28.5734
26.4986
25.0605
24.1486
23.7231
23.8147
24.5218
26.0028
28.4636
32.1373
37.2519
43.9889
52.4371
62.5495
74.1174
86.769
100
-300
-300
-300
-300
-300
-300
-300
-300
-300
-300
100
86.7921
74.1534
62.5798
52.4364
43.9265
37.0916
31.8371
27.9743
25.2687
23.4843
22.4178
21.9228
21.9228
22.4178
23.4843
25.2687
27.9743
31.8371
37.0916
43.9265
52.4364
62.5798
74.1534
86.7921
100
-300
-300
-300
-300
-300
-300
-300
-300
-300
-300
-300
-300
-300
-300
100
88.0173
76.5383
65.9995
56.7169
48.8579
42.4419
37.3656
33.4452
30.465
28.2228
26.5642
25.4019
24.7194
24.568
25.0599
26.3603
28.6767
32.2395
37.2731
43.9556
52.3731
62.4768
74.0556
86.7338
100
-300
-300
-300
-300
-300
-300
-300
-300
-300
-300
100
86.7888
74.1469
62.5704
52.4244
43.9123
37.0758
31.8199
27.9561
25.2499
23.465
22.3983
21.9031
21.9031
22.3983
23.465
25.2499
27.9561
31.8199
37.0758
43.9123
52.4244
62.5704
74.1469
86.7888
100
-300
-300
-300
-300
-300
-300
-300
-300
-300
-300
-300
-300
-300
-300
100
88.6465
77.7653
67.7638
58.9343
51.4263
45.2471
40.2861
36.3568
33.247
30.767
28.7873
27.2557
26.1941
25.6852
25.8618
26.8984
29.0031
32.4022
37.314
43.9117
52.2789
62.3655
73.9589
86.6778
100
-300
-300
-300
-300
-300
-300
-300
-300
-300
-300
100
86.7872
74.1438
62.5658
52.4186
43.9055
37.0682
31.8117
27.9474
25.2409
23.4558
22.389
21.8937
21.8937
22.389
23.4558
25.2409
27.9474
31.8117
37.0682
43.9055
52.4186
62.5658
74.1438
86.7872
100
-300
-300
-300
-300
-300
-300
-300
-300
-300
-300
-300
-300
-300
-300
100
89.507
79.4445
70.1822
61.9811
54.9674
49.1316
44.3515
40.4326
37.1603
34.3553
31.9201
29.859
28.2546
27.2379
26.9702
27.6373
29.4457
32.6139
37.3512
43.8245
52.1155
62.1757
73.7931
86.5811
100
-300
-300
-300
-300
-300
-300
-300
-300
-300
-300
100
86.7864
74.1423
62.5637
52.4159
43.9024
37.0646
31.8079
27.9434
25.2367
23.4515
22.3846
21.8894
21.8894
22.3846
23.4515
25.2367
27.9434
31.8079
37.0646
43.9024
52.4159
62.5637
74.1423
86.7864
100
-300
-300
-300
-300
-300
-300
-300
-300
-300
-300
-300
-300
-300
-300
100
90.6323
81.6426
73.3535
65.9877
59.6427
54.2884
49.7852
45.9212
42.465
39.2334
36.1657
33.3604
30.9996
29.2855
28.4165
28.588
29.9997
32.856
37.3528
43.6494
51.8279
61.8476
73.5051
86.4112
100
-300
-300
-300
-300
-300
-300
-300
-300
-300
-300
100
86.7861
74.1417
62.5628
52.4147
43.901
37.0631
31.8062
27.9416
25.2349
23.4496
22.3827
21.8874
21.8874
22.3827
23.4496
25.2349
27.9416
31.8062
37.0631
43.901
52.4147
62.5628
74.1417
86.7861
100
-300
-300
-300
-300
-300
-300
-300
-300
-300
-300
-300
-300
-300
-300
100
92.0409
84.3972
77.3355
71.0343
65.5598
60.8593
56.7718
53.0544
49.4287
45.665
41.7231
37.8811
34.4903
31.8521
30.2032
29.7402
30.6447
33.0974
37.2743
43.3252
51.3375
61.2906
73.0078
86.1116
100
-300
-300
-300
-300
-300
-300
-300
-300
-300
-300
100
86.786
74.1414
62.5624
52.4142
43.9004
37.0624
31.8054
27.9408
25.2341
23.4488
22.3819
21.8866
21.8866
22.3819
23.4488
25.2341
27.9408
31.8054
37.0624
43.9004
52.4142
62.5624
74.1414
86.786
100
-300
-300
-300
-300
-300
-300
-300
-300
-300
-300
-300
-300
-300
-300
100
93.7285
87.7009
82.1212
77.1207
72.7351
68.894
65.4179
62.0216
58.3309
53.9584
48.7714
43.4747
38.7107
34.8957
32.2849
31.0514
31.3396
33.2927
37.0579
42.7728
50.5364
60.3682
72.1551
85.5766
100
-300
-300
-300
-300
-300
-300
-300
-300
-300
-300
100
86.7859
74.1413
62.5622
52.414
43.9001
37.0621
31.8051
27.9405
25.2337
23.4485
22.3815
21.8862
21.8862
22.3815
23.4485
25.2337
27.9405
31.8051
37.0621
43.9001
52.414
62.5622
74.1413
86.7859
100
-300
-300
-300
-300
-300
-300
-300
-300
-300
-300
-300
-300
-300
-300
100
95.6626
91.491
87.6225
84.1415
81.0606
78.3064
75.7024
72.9361
69.4949
64.5949
57.443
50.0538
43.5107
38.2773
34.5533
32.4418
32.0232
33.3864
36.6392
41.9016
49.2878
58.881
70.6956
84.5887
100
-300
-300
-300
-300
-300
-300
-300
-300
-300
-300
100
86.7859
74.1412
62.5622
52.4139
43.9
37.062
31.805
27.9404
25.2336
23.4483
22.3814
21.8861
21.8861
22.3814
23.4483
25.2336
27.9404
31.805
37.062
43.9
52.4139
62.5622
74.1412
86.7859
100
-300
-300
-300
-300
-300
-300
-300
-300
-300
-300
-300
-300
-300
-300
100
97.7816
95.647
93.665
91.8763
90.2818
88.8319
87.4049
85.751
83.3218
78.7116
67.6814
57.2265
48.5279
41.7357
36.8353
33.8002
32.6223
33.3239
35.9627
40.6294
47.4442
56.561
68.1937
82.6429
100
-300
-300
-300
-300
-300
-300
-300
-300
-300
-300
100
86.7859
74.1412
62.5621
52.4139
43.9
37.062
31.805
27.9403
25.2335
23.4483
22.3813
21.886
21.886
22.3813
23.4483
25.2335
27.9403
31.805
37.062
43.9
52.4139
62.5621
74.1412
86.7859
100
-300
-300
-300
-300
-300
-300
-300
-300
-300
-300
-300
-300
-300
-300
100
100
100
100
100
100
100
100
100
100
100
78.389
63.9457
53.1262
44.9053
38.9202
35.0051
33.0693
33.0693
35.0051
38.9202
44.9053
53.1262
63.9457
78.389
100
100
100
100
100
100
100
100
100
100
100
100
86.7859
74.1412
62.5621
52.4139
43.9
37.0619
31.8049
27.9403
25.2335
23.4483
22.3813
21.886
21.886
22.3813
23.4483
25.2335
27.9403
31.8049
37.0619
43.9
52.4139
62.5621
74.1412
86.7859
100
-300
-300
-300
-300
-300
-300
-300
-300
-300
-300
-300
-300
-300
-300
-300
-300
-300
-300
-300
-300
-300
-300
-300
-300
100
82.6429
68.1937
56.5609
47.4442
40.6293
35.9626
33.3239
32.6222
33.8001
36.8352
41.7356
48.5278
57.2264
67.6813
78.7115
83.3218
85.751
87.4048
88.8319
90.2817
91.8762
93.665
95.647
97.7816
100
100
86.7859
74.1412
62.5621
52.4139
43.9
37.0619
31.8049
27.9403
25.2335
23.4483
22.3813
21.886
21.886
22.3813
23.4483
25.2335
27.9403
31.8049
37.0619
43.9
52.4139
62.5621
74.1412
86.7859
100
-300
-300
-300
-300
-300
-300
-300
-300
-300
-300
-300
-300
-300
-300
-300
-300
-300
-300
-300
-300
-300
-300
-300
-300
100
84.5886
70.6955
58.8809
49.2877
41.9014
36.639
33.3862
32.023
32.4416
34.5531
38.2771
43.5104
50.0535
57.4428
64.5947
69.4947
72.9359
75.7022
78.3062
81.0605
84.1414
87.6224
91.4909
95.6625
100
100
86.7859
74.1412
62.5621
52.4139
43.9
37.0619
31.8049
27.9403
25.2335
23.4483
22.3813
21.886
21.886
22.3813
23.4483
25.2335
27.9403
31.8049
37.0619
43.9
52.4139
62.5621
74.1412
86.7859
100
-300
-300
-300
-300
-300
-300
-300
-300
-300
-300
-300
-300
-300
-300
-300
-300
-300
-300
-300
-300
-300
-300
-300
-300
100
85.5765
72.1549
60.368
50.536
42.7724
37.0574
33.2922
31.3391
31.0508
32.2843
34.8952
38.7101
43.4741
48.7708
53.9579
58.3303
62.021
65.4174
68.8935
72.7347
77.1203
82.1209
87.7007
93.7284
100
100
86.7859
74.1412
62.5621
52.4139
43.9
37.0619
31.8049
27.9403
25.2335
23.4483
22.3813
21.886
21.886
22.3813
23.4483
25.2335
27.9403
31.8049
37.0619
43.9
52.4139
62.5621
74.1412
86.7859
100
-300
-300
-300
-300
-300
-300
-300
-300
-300
-300
-300
-300
-300
-300
-300
-300
-300
-300
-300
-300
-300
-300
-300
-300
100
86.1114
73.0073
61.2899
51.3366
43.3242
37.2732
33.0962
30.6434
29.7388
30.2018
31.8506
34.4889
37.8796
41.7217
45.6636
49.4273
53.0531
56.7706
60.8581
65.5587
71.0334
77.3348
84.3967
92.0407
100
100
86.7859
74.1412
62.5621
52.4139
43.9
37.0619
31.8049
27.9403
25.2335
23.4483
22.3813
21.886
21.886
22.3813
23.4482
25.2335
27.9403
31.8049
37.0619
43.8999
52.4138
62.5621
74.1412
86.7859
100
-300
-300
-300
-300
-300
-300
-300
-300
-300
-300
-300
-300
-300
-300
-300
-300
-300
-300
-300
-300
-300
-300
-300
-300
100
86.4106
73.504
61.8459
51.8258
43.647
37.3501
32.8531
29.9966
28.5848
28.4132
29.2822
30.9962
33.357
36.1624
39.2301
42.4617
45.9181
49.7823
54.2856
59.6403
65.9856
73.3519
81.6415
90.6317
100
100
86.7859
74.1412
62.5621
52.4139
43.9
37.0619
31.8049
27.9403
25.2335
23.4483
22.3813
21.886
21.886
22.3813
23.4482
25.2335
27.9403
31.8049
37.0619
43.8999
52.4138
62.5621
74.1412
86.7858
100
-300
-300
-300
-300
-300
-300
-300
-300
-300
-300
-300
-300
-300
-300
-300
-300
-300
-300
-300
-300
-300
-300
-300
-300
100
86.5797
73.7905
62.1719
52.1107
43.8189
37.3449
32.6071
29.4386
27.6299
26.9626
27.2302
28.2469
29.8513
31.9124
34.3477
37.1529
40.4255
44.3447
49.1254
54.9618
61.9763
70.1784
79.4419
89.5057
100
100
86.7859
74.1412
62.5621
52.4139
43.9
37.0619
31.8049
27.9403
25.2335
23.4482
22.3813
21.886
21.886
22.3813
23.4482
25.2334
27.9402
31.8048
37.0618
43.8998
52.4137
62.562
74.1411
86.7858
100
-300
-300
-300
-300
-300
-300
-300
-300
-300
-300
-300
-300
-300
-300
-300
-300
-300
-300
-300
-300
-300
-300
-300
-300
100
86.6748
73.9531
62.3572
52.2683
43.8993
37.3
32.3871
28.9872
26.8819
25.8449
25.6682
26.177
27.2386
28.7703
30.7502
33.2306
36.341
40.2711
45.2333
51.414
58.9238
67.7555
77.7596
88.6436
100
100
86.7859
74.1412
62.5621
52.4139
43.9
37.0619
31.8049
27.9403
25.2335
23.4482
22.3813
21.886
21.886
22.3812
23.4482
25.2334
27.9401
31.8047
37.0617
43.8997
52.4136
62.5619
74.141
86.7858
100
-300
-300
-300
-300
-300
-300
-300
-300
-300
-300
-300
-300
-300
-300
-300
-300
-300
-300
-300
-300
-300
-300
-300
-300
100
86.7274
74.0432
62.4588
52.3503
43.9288
37.2432
32.2071
28.6425
26.325
25.0238
24.5314
24.6826
25.3651
26.5277
28.1867
30.4298
33.4112
37.3335
42.4122
48.8314
56.6944
65.9818
76.5261
88.011
100
100
86.7859
74.1412
62.5621
52.4139
43.9
37.0619
31.8049
27.9403
25.2335
23.4482
22.3813
21.886
21.8859
22.3812
23.448
25.2332
27.9399
31.8044
37.0613
43.8993
52.4132
62.5615
74.1407
86.7856
100
-300
-300
-300
-300
-300
-300
-300
-300
-300
-300
-300
-300
-300
-300
-300
-300
-300
-300
-300
-300
-300
-300
-300
-300
100
86.7558
74.0915
62.5121
52.3897
43.9333
37.1896
32.0701
28.3927
25.9294
24.4468
23.7388
23.6467
24.0723
24.9846
26.4238
28.5004
31.3863
35.2949
40.4469
47.026
55.1317
64.7361
75.6586
87.5657
100
100
86.7859
74.1412
62.5621
52.4139
43.9
37.0619
31.8049
27.9403
25.2335
23.4482
22.3812
21.8859
21.8858
22.381
23.4478
25.2328
27.9394
31.8038
37.0606
43.8985
52.4124
62.5608
74.1402
86.7853
100
-300
-300
-300
-300
-300
-300
-300
-300
-300
-300
-300
-300
-300
-300
-300
-300
-300
-300
-300
-300
-300
-300
-300
-300
100
86.7706
74.1163
62.5384
52.4063
43.9271
37.1458
31.9717
28.2202
25.6606
24.0585
23.2084
22.9566
23.2138
23.9616
25.2552
27.2195
30.0386
33.9339
39.1306
45.8136
54.08
63.8962
75.0731
87.265
100
100
86.7859
74.1412
62.5621
52.4139
43.9
37.0619
31.8049
27.9403
25.2335
23.4482
22.3812
21.8858
21.8856
22.3807
23.4473
25.2321
27.9384
31.8025
37.059
43.8967
52.4106
62.5592
74.139
86.7847
100
-300
-300
-300
-300
-300
-300
-300
-300
-300
-300
-300
-300
-300
-300
-300
-300
-300
-300
-300
-300
-300
-300
-300
-300
100
86.7776
74.1279
62.5498
52.4111
43.9175
37.1127
31.9042
28.106
25.4855
23.8075
22.8675
22.5146
22.6651
23.3085
24.5089
26.4005
29.175
33.0596
38.283
45.0312
53.3999
63.3524
74.6936
87.07
100
100
86.7859
74.1412
62.5621
52.4139
43.9
37.0619
31.8049
27.9403
25.2334
23.4481
22.381
21.8855
21.8852
22.38
23.4462
25.2306
27.9363
31.7998
37.0558
43.8932
52.407
62.5559
74.1365
86.7833
100
-300
-300
-300
-300
-300
-300
-300
-300
-300
-300
-300
-300
-300
-300
-300
-300
-300
-300
-300
-300
-300
-300
-300
-300
100
86.78
74.1315
62.5524
52.4092
43.9069
37.088
31.8591
28.0326
25.3753
23.6513
22.6565
22.242
22.3274
22.9069
24.0499
25.8961
28.6422
32.5192
37.758
44.5456
52.9773
63.0141
74.4573
86.9485
100
100
86.7859
74.1412
62.5621
52.4139
43.9
37.0619
31.8049
27.9402
25.2333
23.4479
22.3807
21.885
21.8843
22.3787
23.4442
25.2277
27.9323
31.7946
37.0495
43.8862
52.3998
62.5494
74.1314
86.7806
100
-300
-300
-300
-300
-300
-300
-300
-300
-300
-300
-300
-300
-300
-300
-300
-300
-300
-300
-300
-300
-300
-300
-300
-300
100
86.7791
74.1294
62.5482
52.4019
43.8945
37.068
31.8278
27.9857
25.3074
23.5569
22.5303
22.0799
22.1271
22.6689
23.7779
25.597
28.3258
32.1978
37.4452
44.2559
52.7247
62.8116
74.3158
86.8757
100
100
86.7859
74.1412
62.5621
52.4139
43.9
37.0619
31.8049
27.9402
25.2332
23.4477
22.3802
21.8841
21.8828
22.3762
23.4404
25.2221
27.9247
31.7848
37.0375
43.8726
52.3859
62.5367
74.1217
86.7752
100
-300
-300
-300
-300
-300
-300
-300
-300
-300
-300
-300
-300
-300
-300
-300
-300
-300
-300
-300
-300
-300
-300
-300
-300
100
86.7746
74.1208
62.5364
52.3874
43.8775
37.0477
31.8026
27.9532
25.2646
23.5002
22.4566
21.9864
22.0123
22.5328
23.6225
25.426
28.1448
32.0136
37.2658
44.0894
52.5795
62.6952
74.2343
86.8338
100
100
86.7859
74.1412
62.5621
52.4139
43.8999
37.0619
31.8048
27.94
25.2329
23.4472
22.3793
21.8825
21.8801
22.3718
23.4336
25.2122
27.9109
31.7666
37.0153
43.8475
52.3599
62.5127
74.1031
86.7651
100
-300
-300
-300
-300
-300
-300
-300
-300
-300
-300
-300
-300
-300
-300
-300
-300
-300
-300
-300
-300
-300
-300
-300
-300
100
86.7648
74.1028
62.5127
52.3608
43.8501
37.0207
31.7759
27.9255
25.234
23.4643
22.4129
21.9331
21.9481
22.4574
23.5367
25.3318
28.045
31.912
37.1666
43.9974
52.4991
62.6306
74.1892
86.8106
100
100
86.7859
74.1412
62.5621
52.4138
43.8999
37.0618
31.8047
27.9398
25.2325
23.4464
22.3778
21.8798
21.8755
22.3642
23.4219
25.1948
27.8865
31.7345
36.9757
43.8021
52.3125
62.4688
74.0689
86.7463
100
-300
-300
-300
-300
-300
-300
-300
-300
-300
-300
-300
-300
-300
-300
-300
-300
-300
-300
-300
-300
-300
-300
-300
-300
100
86.7462
74.0688
62.4689
52.313
43.8035
36.9784
31.7391
27.8938
25.2056
23.437
22.3846
21.9017
21.9122
22.4164
23.4907
25.2815
27.9919
31.8579
37.1139
43.9484
52.4562
62.5962
74.1651
86.7982
100
100
86.7859
74.1412
62.5621
52.4138
43.8999
37.0617
31.8045
27.9395
25.2318
23.445
22.3753
21.8753
21.8678
22.3517
23.4022
25.1655
27.8452
31.6795
36.9071
43.7228
52.2288
62.3904
74.0074
86.7123
100
-300
-300
-300
-300
-300
-300
-300
-300
-300
-300
-300
-300
-300
-300
-300
-300
-300
-300
-300
-300
-300
-300
-300
-300
100
86.7122
74.0074
62.3905
52.2291
43.7235
36.9084
31.6817
27.8487
25.1707
23.4095
22.3614
21.8804
21.8909
22.3938
23.4662
25.2553
27.9644
31.8301
37.0867
43.9232
52.4342
62.5785
74.1527
86.7918
100
100
86.7859
74.1412
62.5621
52.4138
43.8998
37.0616
31.8043
27.939
25.2308
23.4429
22.3714
21.8683
21.8557
22.3317
23.3707
25.1181
27.7776
31.5886
36.7923
43.5884
52.0851
62.254
73.8991
86.6519
100
-300
-300
-300
-300
-300
-300
-300
-300
-300
-300
-300
-300
-300
-300
-300
-300
-300
-300
-300
-300
-300
-300
-300
-300
100
86.6519
73.8991
62.2541
52.0853
43.5887
36.793
31.5896
27.7793
25.1205
23.3741
22.3362
21.8615
21.8755
22.38
23.4528
25.2416
27.9505
31.8161
37.0732
43.9107
52.4233
62.5697
74.1465
86.7886
100
100
86.7859
74.1412
62.5621
52.4138
43.8998
37.0615
31.8039
27.9382
25.2292
23.4398
22.3656
21.8578
21.8374
22.3012
23.3221
25.0445
27.6714
31.4437
36.6069
43.3677
51.8451
62.0223
73.7121
86.5464
100
-300
-300
-300
-300
-300
-300
-300
-300
-300
-300
-300
-300
-300
-300
-300
-300
-300
-300
-300
-300
-300
-300
-300
-300
100
86.5464
73.7121
62.0223
51.8452
43.3679
36.6072
31.4442
27.6721
25.0455
23.3236
22.3032
21.84
21.861
22.3694
23.4443
25.2341
27.9434
31.8092
37.0667
43.9046
52.418
62.5655
74.1436
86.7871
100
100
86.7859
74.1412
62.5621
52.4137
43.8997
37.0612
31.8034
27.9371
25.2269
23.4354
22.3572
21.8425
21.8108
22.2565
23.2504
24.9345
27.5108
31.2216
36.3175
43.0167
51.4549
61.6368
73.3941
86.3638
100
-300
-300
-300
-300
-300
-300
-300
-300
-300
-300
-300
-300
-300
-300
-300
-300
-300
-300
-300
-300
-300
-300
-300
-300
100
86.3638
73.3941
61.6368
51.455
43.0167
36.3176
31.2218
27.5111
24.9349
23.2511
22.2574
21.8119
21.8439
22.3589
23.4373
25.2291
27.9393
31.8057
37.0635
43.9018
52.4156
62.5636
74.1422
86.7864
100
100
86.7859
74.1412
62.562
52.4137
43.8995
37.0609
31.8027
27.9356
25.2239
23.4294
22.3458
21.8216
21.7738
22.194
23.1491
24.7772
27.278
30.894
35.8824
42.4762
50.8376
61.0079
72.8583
86.0475
100
-300
-300
-300
-300
-300
-300
-300
-300
-300
-300
-300
-300
-300
-300
-300
-300
-300
-300
-300
-300
-300
-300
-300
-300
100
86.0475
72.8583
61.0079
50.8376
42.4762
35.8825
30.8941
27.2782
24.7774
23.1494
22.1944
21.7743
21.8221
22.3465
23.4302
25.2248
27.9365
31.8037
37.0619
43.9004
52.4145
62.5627
74.1416
86.7861
100
100
86.7858
74.1412
62.562
52.4136
43.8993
37.0605
31.8018
27.9337
25.2199
23.4216
22.3308
21.794
21.7249
22.1106
23.0124
24.5625
26.9553
30.4315
35.2539
41.6732
49.8882
59.9998
71.9582
85.4907
100
-300
-300
-300
-300
-300
-300
-300
-300
-300
-300
-300
-300
-300
-300
-300
-300
-300
-300
-300
-300
-300
-300
-300
-300
100
85.4907
71.9582
59.9998
49.8882
41.6732
35.2539
30.4316
26.9553
24.5626
23.0125
22.1107
21.7251
21.7942
22.3311
23.4219
25.2203
27.934
31.8022
37.0609
43.8997
52.4139
62.5623
74.1413
86.7859
100
100
86.7858
74.1411
62.562
52.4135
43.8991
37.06
31.8007
27.9313
25.2151
23.4119
22.3121
21.7594
21.6632
22.0044
22.8367
24.2831
26.5288
29.8084
34.3855
40.5271
48.4745
58.4138
70.44
84.4731
100
-300
-300
-300
-300
-300
-300
-300
-300
-300
-300
-300
-300
-300
-300
-300
-300
-300
-300
-300
-300
-300
-300
-300
-300
100
84.4731
70.44
58.4138
48.4745
40.5271
34.3855
29.8084
26.5288
24.2831
22.8367
22.0045
21.6632
21.7595
22.3122
23.412
25.2152
27.9314
31.8008
37.0601
43.8993
52.4136
62.5621
74.1412
86.7859
100
100
86.7858
74.1411
62.5619
52.4134
43.8989
37.0594
31.7994
27.9285
25.2093
23.4004
22.29
21.7182
21.5891
21.8761
22.6223
23.938
25.9942
29.0118
33.2462
38.9692
46.4551
55.9815
67.8617
82.4793
100
-300
-300
-300
-300
-300
-300
-300
-300
-300
-300
-300
-300
-300
-300
-300
-300
-300
-300
-300
-300
-300
-300
-300
-300
100
82.4793
67.8617
55.9815
46.4551
38.9693
33.2462
29.0118
25.9942
23.9381
22.6223
21.8761
21.5891
21.7182
22.2901
23.4005
25.2094
27.9286
31.7995
37.0595
43.8989
52.4134
62.562
74.1412
86.7859
100
100
86.7858
74.1411
62.5619
52.4133
43.8986
37.0588
31.798
27.9255
25.2029
23.3876
22.2651
21.6716
21.5048
21.729
22.3745
23.5351
25.3614
28.052
31.84
36.9786
43.7357
52.4188
63.504
78.1252
100
100
100
100
100
100
100
100
100
100
100
100
100
100
100
100
100
100
100
100
100
100
100
100
100
100
78.1252
63.504
52.4188
43.7357
36.9786
31.84
28.052
25.3614
23.5351
22.3745
21.729
21.5048
21.6716
22.2651
23.3876
25.203
27.9255
31.798
37.0588
43.8986
52.4133
62.5619
74.1411
86.7858
100
100
86.7858
74.1411
62.5619
52.4132
43.8983
37.0581
31.7965
27.9222
25.1962
23.3739
22.2385
21.6215
21.4139
21.5694
22.1039
23.0913
24.6573
26.9698
30.2251
34.6309
40.3885
47.676
56.6196
67.148
78.1252
82.4793
84.4731
85.4907
86.0475
86.3638
86.5464
86.6518
86.7122
86.746
86.7645
86.774
86.778
86.778
86.774
86.7645
86.746
86.7122
86.6518
86.5464
86.3638
86.0475
85.4907
84.4731
82.4793
78.1252
67.148
56.6196
47.676
40.3885
34.6309
30.2251
26.9698
24.6573
23.0913
22.1039
21.5694
21.4139
21.6215
22.2385
23.3739
25.1962
27.9222
31.7965
37.0581
43.8983
52.4132
62.5619
74.1411
86.7858
100
100
86.7859
74.1411
62.5619
52.4132
43.8981
37.0576
31.7951
27.9191
25.1894
23.3602
22.2116
21.5706
21.321
21.4058
21.825
22.6315
23.9232
25.833
28.5134
32.1166
36.7653
42.5125
49.2652
56.6196
63.504
67.8617
70.44
71.9582
72.8583
73.3941
73.7121
73.899
74.0072
74.0685
74.1021
74.1194
74.1267
74.1267
74.1194
74.1021
74.0685
74.0072
73.899
73.7121
73.3941
72.8583
71.9582
70.44
67.8617
63.504
56.6196
49.2652
42.5125
36.7653
32.1166
28.5134
25.833
23.9232
22.6315
21.825
21.4058
21.321
21.5706
22.2116
23.3602
25.1894
27.9191
31.7951
37.0576
43.8981
52.4132
62.5619
74.1411
86.7859
100
100
86.7859
74.1412
62.562
52.4133
43.8981
37.0572
31.7939
27.9162
25.1831
23.3471
22.1858
21.5216
21.2313
21.2471
21.5539
22.1833
23.2057
24.7193
26.8348
29.6538
33.2399
37.5772
42.5125
47.676
52.4188
55.9815
58.4138
59.9998
61.0079
61.6368
62.0222
62.2539
62.3901
62.4682
62.5113
62.5337
62.5432
62.5432
62.5337
62.5113
62.4682
62.3901
62.2539
62.0222
61.6368
61.0079
59.9998
58.4138
55.9815
52.4188
47.676
42.5125
37.5772
33.2399
29.6538
26.8348
24.7193
23.2057
22.1833
21.5539
21.2471
21.2313
21.5216
22.1858
23.3471
25.1831
27.9162
31.7939
37.0572
43.8981
52.4133
62.562
74.1412
86.7859
100
100
86.786
74.1415
62.5624
52.4137
43.8985
37.0573
31.7933
27.9141
25.1779
23.3357
22.1627
21.4773
21.1496
21.102
21.3053
21.7718
22.5469
23.698
25.3004
27.4178
30.0774
33.2399
36.7653
40.3885
43.7357
46.4551
48.4745
49.8882
50.8376
51.4549
51.8451
52.085
52.2285
52.3118
52.3584
52.3826
52.3929
52.3929
52.3826
52.3584
52.3118
52.2285
52.085
51.8451
51.4549
50.8376
49.8882
48.4745
46.4551
43.7357
40.3885
36.7653
33.2399
30.0774
27.4178
25.3004
23.698
22.5469
21.7718
21.3053
21.102
21.1496
21.4773
22.1627
23.3357
25.1779
27.9141
31.7933
37.0573
43.8985
52.4137
62.5624
74.1415
86.786
100
100
86.7864
74.1421
62.5633
52.4148
43.8996
37.0583
31.7939
27.9134
25.1745
23.327
22.1438
21.4399
21.0796
20.9769
21.0903
21.4155
21.977
22.817
23.9836
25.5143
27.4178
29.6538
32.1166
34.6309
36.9786
38.9692
40.5271
41.6732
42.4762
43.0166
43.3677
43.5883
43.7225
43.8014
43.846
43.8694
43.8794
43.8794
43.8694
43.846
43.8014
43.7225
43.5883
43.3677
43.0166
42.4762
41.6732
40.5271
38.9692
36.9786
34.6309
32.1166
29.6538
27.4178
25.5143
23.9836
22.817
21.977
21.4155
21.0903
20.9769
21.0796
21.4399
22.1438
23.327
25.1745
27.9134
31.7939
37.0583
43.8996
52.4148
62.5633
74.1421
86.7864
100
100
86.7871
74.1436
62.5653
52.4173
43.9026
37.0614
31.7967
27.9153
25.1743
23.3225
22.131
21.4117
21.0246
20.8764
20.9157
21.1251
21.5121
22.1
22.9169
23.9836
25.3004
26.8348
28.5134
30.2251
31.84
33.2462
34.3855
35.2539
35.8824
36.3175
36.6068
36.7922
36.9068
36.9751
37.014
37.0346
37.0434
37.0434
37.0346
37.014
36.9751
36.9068
36.7922
36.6068
36.3175
35.8824
35.2539
34.3855
33.2462
31.84
30.2251
28.5134
26.8348
25.3004
23.9836
22.9169
22.1
21.5121
21.1251
20.9157
20.8764
21.0246
21.4117
22.131
23.3225
25.1743
27.9153
31.7967
37.0614
43.9026
52.4173
62.5653
74.1436
86.7871
100
100
86.7887
74.1467
62.5698
52.423
43.9092
37.0687
31.8042
27.9224
25.1799
23.3248
22.1268
21.3956
20.9873
20.8035
20.7849
20.904
21.1558
21.5497
22.1
22.817
23.698
24.7193
25.833
26.9698
28.052
29.0118
29.8084
30.4315
30.894
31.2215
31.4437
31.5885
31.6793
31.734
31.7655
31.7823
31.7896
31.7896
31.7823
31.7655
31.734
31.6793
31.5885