# vtk DataFile Version 2.0
LBE two cylinders
ASCII
DATASET STRUCTURED_POINTS
DIMENSIONS 76 76 1
ASPECT_RATIO 1 1 1
ORIGIN 0 0 0
POINT_DATA 5776
SCALARS temp double 1
LOOKUP_TABLE default
100
100
100
100
100
100
100
100
100
100
100
100
100
100
100
100
100
100
100
100
100
100
100
100
100
100
-300
-300
-300
-300
-300
-300
-300
-300
-300
-300
-300
-300
-300
-300
100
100
100
100
100
100
100
100
100
100
100
100
100
100
100
100
100
100
100
100
100
100
100
100
100
100
-300
-300
-300
-300
-300
-300
-300
-300
-300
-300
100
98.6504
97.3369
96.0931
94.9472
93.9206
93.0273
92.2739
91.6606
91.183
90.8343
90.607
90.495
90.495
90.607
90.8343
91.183
91.6606
92.2739
93.0273
93.9206
94.9472
96.0931
97.3369
98.6504
100
-300
-300
-300
-300
-300
-300
-300
-300
-300
-300
-300
-300
-300
-300
100
98.651
97.3382
96.095
94.9496
93.9234
93.0304
92.2771
91.6638
91.1862
90.8373
90.6097
90.4975
90.4972
90.6088
90.8358
91.1842
91.6615
92.2746
93.0279
93.921
94.9474
96.0933
97.337
98.6504
100
-300
-300
-300
-300
-300
-300
-300
-300
-300
-300
100
97.3366
94.7446
92.29
90.0286
88.0028
86.24
84.7532
83.5428
82.6004
81.9122
81.4637
81.2428
81.2428
81.4637
81.9122
82.6004
83.5428
84.7532
86.24
88.0028
90.0286
92.29
94.7446
97.3366
100
-300
-300
-300
-300
-300
-300
-300
-300
-300
-300
-300
-300
-300
-300
100
97.3382
94.7477
92.2945
90.0343
88.0094
86.2473
84.7608
83.5505
82.6079
81.9194
81.4703
81.2487
81.2479
81.468
81.9158
82.6033
83.5451
84.7549
86.2412
88.0037
90.0292
92.2904
94.7448
97.3367
100
-300
-300
-300
-300
-300
-300
-300
-300
-300
-300
100
96.0917
92.2882
88.6863
85.3679
82.3952
79.8085
77.6268
75.8507
74.4678
73.458
72.7999
72.4757
72.4757
72.7999
73.458
74.4678
75.8507
77.6268
79.8085
82.3952
85.3679
88.6863
92.2882
96.0917
100
-300
-300
-300
-300
-300
-300
-300
-300
-300
-300
-300
-300
-300
-300
100
96.0948
92.2943
88.6952
85.3791
82.4082
79.8228
77.6417
75.8659
74.4826
73.4721
72.8128
72.4873
72.4858
72.8084
73.4651
74.4735
75.8551
77.6301
79.8109
82.3969
85.3691
88.687
92.2886
96.0919
100
-300
-300
-300
-300
-300
-300
-300
-300
-300
-300
100
94.9433
90.0223
85.3621
81.0687
77.2226
73.8759
71.0532
68.7554
66.9662
65.6598
64.8083
64.3889
64.3889
64.8083
65.6598
66.9662
68.7554
71.0532
73.8759
77.2226
81.0687
85.3621
90.0223
94.9433
100
-300
-300
-300
-300
-300
-300
-300
-300
-300
-300
-300
-300
-300
-300
100
94.9491
90.0336
85.3784
81.0893
77.2465
73.9022
71.0808
68.7833
66.9935
65.6857
64.8321
64.4102
64.4075
64.824
65.6728
66.9766
68.7635
71.0593
73.8803
77.2257
81.0708
85.3634
90.0231
94.9437
100
-300
-300
-300
-300
-300
-300
-300
-300
-300
-300
100
93.9121
87.9875
82.3769
77.208
72.5775
68.5484
65.1501
62.3838
60.2299
58.6571
57.6319
57.127
57.127
57.6319
58.6571
60.2299
62.3838
65.1501
68.5484
72.5775
77.208
82.3769
87.9875
93.9121
100
-300
-300
-300
-300
-300
-300
-300
-300
-300
-300
-300
-300
-300
-300
100
93.9224
88.0076
82.4059
77.2446
72.6202
68.5953
65.1994
62.4337
60.2787
58.7033
57.6746
57.1652
57.1603
57.6601
58.6803
60.2484
62.3982
65.1609
68.5563
72.583
77.2116
82.3792
87.9888
93.9127
100
-300
-300
-300
-300
-300
-300
-300
-300
-300
-300
100
93.0105
86.2084
79.7669
73.8325
68.5164
63.8907
59.9892
56.8133
54.3405
52.5349
51.358
50.7784
50.7784
51.358
52.5349
54.3405
56.8133
59.9892
63.8907
68.5164
73.8325
79.7669
86.2084
93.0105
100
-300
-300
-300
-300
-300
-300
-300
-300
-300
-300
-300
-300
-300
-300
100
93.0284
86.2434
79.8175
73.8964
68.5908
63.9724
60.0751
56.9003
54.4256
52.6156
51.4324
50.845
50.8364
51.4071
52.5753
54.3728
56.8383
60.0079
63.9042
68.5259
73.8388
79.7709
86.2106
93.0115
100
-300
-300
-300
-300
-300
-300
-300
-300
-300
-300
100
92.2429
84.6939
77.5451
70.9591
65.0594
59.9258
55.596
52.0715
49.3273
47.3235
46.0175
45.3743
45.3743
46.0175
47.3235
49.3273
52.0715
55.596
59.9258
65.0594
70.9591
77.5451
84.6939
92.2429
100
-300
-300
-300
-300
-300
-300
-300
-300
-300
-300
-300
-300
-300
-300
100
92.2734
84.7535
77.6312
71.0678
65.1859
60.065
55.7424
52.2198
49.4724
47.4612
46.1444
45.4879
45.4732
46.1012
47.3924
49.3822
52.114
55.6277
59.9486
65.0752
70.9696
77.5516
84.6976
92.2446
100
-300
-300
-300
-300
-300
-300
-300
-300
-300
-300
100
91.6067
83.4385
75.7034
68.5773
62.1937
56.6392
51.9545
48.1411
45.1719
43.0039
41.5909
40.895
40.895
41.5909
43.0039
45.1719
48.1411
51.9545
56.6392
62.1937
68.5773
75.7034
83.4385
91.6067
100
-300
-300
-300
-300
-300
-300
-300
-300
-300
-300
-300
-300
-300
-300
100
91.6574
83.5377
75.8466
68.7581
62.4045
56.8711
52.1985
48.3882
45.414
43.2337
41.8026
41.0845
41.06
41.7305
43.1186
45.2633
48.2115
52.007
56.6769
62.2196
68.5943
75.7139
83.4444
91.6093
100
-300
-300
-300
-300
-300
-300
-300
-300
-300
-300
100
91.093
82.425
74.2166
66.6545
59.8804
53.9861
49.0149
44.9683
41.8176
39.5171
38.0177
37.2792
37.2792
38.0177
39.5171
41.8176
44.9683
49.0149
53.9861
59.8804
66.6545
74.2166
82.425
91.093
100
-300
-300
-300
-300
-300
-300
-300
-300
-300
-300
-300
-300
-300
-300
100
91.1756
82.5864
74.4496
66.9489
60.2236
54.364
49.4127
45.3714
42.2125
39.892
38.3633
37.5886
37.5484
38.2452
39.7037
41.9661
45.0825
49.0997
54.0467
59.9217
66.6813
74.2329
82.4341
91.097
100
-300
-300
-300
-300
-300
-300
-300
-300
-300
-300
100
90.6892
81.6282
73.0476
65.1427
58.0616
51.9002
46.7037
42.4738
39.1805
36.7758
35.2085
34.4366
34.4366
35.2085
36.7758
39.1805
42.4738
46.7037
51.9002
58.0616
65.1427
73.0476
81.6282
90.6892
100
-300
-300
-300
-300
-300
-300
-300
-300
-300
-300
-300
-300
-300
-300
100
90.8205
81.885
73.4185
65.6115
58.6083
52.5025
47.3381
43.117
39.8108
37.3744
35.7602
34.9304
34.866
35.5711
37.0729
39.4163
42.6548
46.8375
51.9951
58.1258
65.1839
73.0723
81.6416
90.695
100
-300
-300
-300
-300
-300
-300
-300
-300
-300
-300
100
90.3799
81.0178
72.1523
63.9848
56.6685
50.3026
44.9336
40.5634
37.1608
34.6763
33.0571
32.2596
32.2596
33.0571
34.6763
37.1608
40.5634
44.9336
50.3026
56.6685
63.9848
72.1523
81.0178
90.3799
100
-300
-300
-300
-300
-300
-300
-300
-300
-300
-300
-300
-300
-300
-300
100
90.5842
81.4175
72.7296
64.7149
57.5206
51.2418
45.9234
41.5674
38.1451
35.6114
33.9189
33.0308
32.9298
33.6224
35.1387
37.5269
40.8433
45.1395
50.4475
56.7656
64.0461
72.1883
81.037
90.3879
100
-300
-300
-300
-300
-300
-300
-300
-300
-300
-300
100
90.149
80.5624
71.4841
63.1208
55.629
49.1105
43.6128
39.1379
35.6538
33.1098
31.4518
30.6352
30.6352
31.4518
33.1098
35.6538
39.1379
43.6128
49.1105
55.629
63.1208
71.4841
80.5624
90.149
100
-300
-300
-300
-300
-300
-300
-300
-300
-300
-300
-300
-300
-300
-300
100
90.46
81.1707
72.3633
64.2332
56.928
50.5434
45.1239
40.6716
37.1582
34.5392
32.7692
31.8137
31.6585
32.3137
33.8134
36.2093
39.5609
43.9221
49.3263
55.7717
63.2092
71.5347
80.5884
90.1597
100
-300
-300
-300
-300
-300
-300
-300
-300
-300
-300
100
89.9812
80.2312
70.9983
62.4925
54.8732
48.2437
42.6525
38.1015
34.5581
31.9709
30.2847
29.4543
29.4543
30.2847
31.9709
34.5581
38.1015
42.6525
48.2437
54.8732
62.4925
70.9983
80.2312
89.9812
100
-300
-300
-300
-300
-300
-300
-300
-300
-300
-300
-300
-300
-300
-300
100
90.4441
81.137
72.308
64.1506
56.8109
50.3828
44.91
40.3944
36.8084
34.1095
32.2555
31.2163
30.9826
31.5701
33.0177
35.3818
38.7256
43.1056
48.5566
55.0768
62.6156
71.0663
80.2645
89.9941
100
-300
-300
-300
-300
-300
-300
-300
-300
-300
-300
100
89.8622
79.9965
70.654
62.0473
54.3376
47.6295
41.9721
37.3671
33.7818
31.1639
29.4578
28.6175
28.6175
29.4578
31.1639
33.7818
37.3671
41.9721
47.6295
54.3376
62.0473
70.654
79.9965
89.8622
100
-300
-300
-300
-300
-300
-300
-300
-300
-300
-300
-300
-300
-300
-300
100
90.5363
81.3159
72.5628
64.4656
57.1661
50.7549
45.2735
40.7231
37.0771
34.2965
32.344
31.1961
30.8512
31.3327
32.6866
34.9751
38.2662
42.6192
48.0706
54.6187
62.2118
70.7402
80.0355
89.876
100
-300
-300
-300
-300
-300
-300
-300
-300
-300
-300
100
89.7801
79.8344
70.4162
61.7398
53.9677
47.2053
41.502
36.8598
33.2455
30.6066
28.8867
28.0396
28.0396
28.8867
30.6066
33.2455
36.8598
41.502
47.2053
53.9677
61.7398
70.4162
79.8344
89.7801
100
-300
-300
-300
-300
-300
-300
-300
-300
-300
-300
-300
-300
-300
-300
100
90.7404
81.7148
73.1384
65.1916
58.009
51.6757
46.2295
41.6699
37.9718
35.1004
33.0256
31.7339
31.2346
31.562
32.772
34.9348
38.1238
42.4026
47.8092
54.3424
61.9492
70.5172
79.8738
89.7911
100
-300
-300
-300
-300
-300
-300
-300
-300
-300
-300
100
89.7248
79.7252
70.2561
61.5327
53.7186
46.9196
41.1855
36.5183
32.8845
30.2313
28.5021
27.6504
27.6504
28.5021
30.2313
32.8845
36.5183
41.1855
46.9196
53.7186
61.5327
70.2561
79.7252
89.7248
100
-300
-300
-300
-300
-300
-300
-300
-300
-300
-300
-300
-300
-300
-300
100
91.0636
82.3479
74.0557
66.3554
59.3718
53.1814
47.8161
43.2725
39.5261
36.5475
34.3167
32.8338
32.124
32.237
33.2422
35.2203
38.252
42.4054
47.7211
54.1984
61.7832
70.3606
79.7529
89.7254
100
-300
-300
-300
-300
-300
-300
-300
-300
-300
-300
100
89.6884
79.6535
70.1509
61.3967
53.5549
46.7319
40.9777
36.294
32.6474
29.9848
28.2495
27.3949
27.3949
28.2495
29.9848
32.6474
36.294
40.9777
46.7319
53.5549
61.3967
70.1509
79.6535
89.6884
100
-300
-300
-300
-300
-300
-300
-300
-300
-300
-300
-300
-300
-300
-300
100
91.5151
83.2339
75.3424
67.9941
61.2997
55.3244
50.0909
45.5903
41.7973
38.6882
36.2558
34.5197
33.5278
33.3514
34.0781
35.8019
38.6129
42.5846
47.7605
54.1408
61.6711
70.2337
79.6461
89.6649
100
-300
-300
-300
-300
-300
-300
-300
-300
-300
-300
100
89.6651
79.6076
70.0835
61.3096
53.4501
46.6118
40.8446
36.1503
32.4955
29.827
28.0878
27.2313
27.2313
28.0878
29.827
32.4955
36.1503
40.8446
46.6118
53.4501
61.3096
70.0835
79.6076
89.6651
100
-300
-300
-300
-300
-300
-300
-300
-300
-300
-300
-300
-300
-300
-300
100
92.105
84.3927
77.0289
70.1483
63.8444
58.1667
53.125
48.7002
44.8627
41.5926
38.8993
36.8302
35.4656
34.9072
35.2668
36.6553
39.1733
42.9003
47.8831
54.1236
61.5679
70.0969
79.523
89.5929
100
-300
-300
-300
-300
-300
-300
-300
-300
-300
-300
100
89.6506
79.5789
70.0414
61.2551
53.3847
46.5367
40.7614
36.0605
32.4006
29.7284
27.9868
27.129
27.129
27.9868
29.7284
32.4006
36.0605
40.7614
46.5367
53.3847
61.2551
70.0414
79.5789
89.6506
100
-300
-300
-300
-300
-300
-300
-300
-300
-300
-300
-300
-300
-300
-300
100
92.8412
85.8409
79.1414
72.8553
67.0554
61.772
56.9959
52.691
48.8152
45.3476
42.3164
39.8104
37.9586
36.9057
36.7942
37.7546
39.8984
43.3108
48.0418
54.0961
61.422
69.9021
79.3458
89.4882
100
-300
-300
-300
-300
-300
-300
-300
-300
-300
-300
100
89.6417
79.5614
70.0158
61.2219
53.3447
46.4909
40.7107
36.0058
32.3428
29.6682
27.9252
27.0667
27.0667
27.9252
29.6682
32.3428
36.0058
40.7107
46.4909
53.3447
61.2219
70.0158
79.5614
89.6417
100
-300
-300
-300
-300
-300
-300
-300
-300
-300
-300
-300
-300
-300
-300
100
93.7278
87.5873
81.6952
76.1396
70.9705
66.195
61.779
57.6586
53.7635
50.0566
46.5844
43.5032
41.0192
39.3365
38.6351
39.0651
40.7466
43.7684
48.1829
53.9985
61.1701
69.587
79.0618
89.3198
100
-300
-300
-300
-300
-300
-300
-300
-300
-300
-300
100
89.6364
79.551
70.0005
61.2022
53.321
46.4637
40.6805
35.9732
32.3084
29.6325
27.8885
27.0296
27.0296
27.8885
29.6325
32.3084
35.9732
40.6805
46.4637
53.321
61.2022
70.0005
79.551
89.6364
100
-300
-300
-300
-300
-300
-300
-300
-300
-300
-300
-300
-300
-300
-300
100
94.762
89.6277
84.6871
80.0035
75.6036
71.4699
67.5383
63.7031
59.8379
55.8505
51.7874
47.9369
44.6343
42.1637
40.7431
40.5361
41.6649
44.2164
48.2433
53.7592
60.7308
69.0653
78.5923
89.0378
100
-300
-300
-300
-300
-300
-300
-300
-300
-300
-300
100
89.6334
79.5449
69.9916
61.1907
53.3072
46.4478
40.663
35.9543
32.2884
29.6117
27.8672
27.0081
27.0081
27.8672
29.6117
32.2884
35.9543
40.663
46.4478
53.3072
61.1907
69.9916
79.5449
89.6334
100
-300
-300
-300
-300
-300
-300
-300
-300
-300
-300
-300
-300
-300
-300
100
95.9324
91.9407
88.0886
84.4167
80.9315
77.5947
74.3128
70.9264
67.2105
62.9236
58.0169
53.1036
48.7425
45.3081
43.0398
42.0959
42.5868
44.5892
48.1518
53.2938
60.001
68.2151
77.8123
88.5538
100
-300
-300
-300
-300
-300
-300
-300
-300
-300
-300
100
89.6316
79.5415
69.9866
61.1842
53.2993
46.4389
40.653
35.9436
32.277
29.5999
27.8551
26.9958
26.9958
27.8551
29.5999
32.277
35.9436
40.653
46.4389
53.2993
61.1842
69.9866
79.5415
89.6316
100
-300
-300
-300
-300
-300
-300
-300
-300
-300
-300
-300
-300
-300
-300
100
97.2178
94.4847
91.8406
89.3075
86.8794
84.5095
82.0906
79.4195
76.1351
71.6516
65.362
58.9098
53.1951
48.6274
45.4072
43.6505
43.4354
44.8175
47.835
52.5113
58.8559
66.8655
76.5133
87.6906
100
-300
-300
-300
-300
-300
-300
-300
-300
-300
-300
100
89.6307
79.5396
69.9838
61.1806
53.295
46.4339
40.6475
35.9377
32.2707
29.5934
27.8484
26.9891
26.9891
27.8484
29.5934
32.2707
35.9376
40.6475
46.4339
53.295
61.1806
69.9838
79.5396
89.6307
100
-300
-300
-300
-300
-300
-300
-300
-300
-300
-300
-300
-300
-300
-300
100
98.5868
97.1976
95.8513
94.5567
93.3065
92.0665
90.7567
89.2005
86.9819
82.9881
73.802
65.0494
57.6971
51.8988
47.6883
45.0904
44.1319
44.8382
47.2306
51.3296
57.1634
64.7904
74.339
86.0407
100
-300
-300
-300
-300
-300
-300
-300
-300
-300
-300
100
89.6301
79.5386
69.9823
61.1786
53.2926
46.4312
40.6445
35.9344
32.2673
29.5898
27.8448
26.9854
26.9854
27.8448
29.5898
32.2673
35.9344
40.6445
46.4312
53.2926
61.1786
69.9822
79.5386
89.6301
100
-300
-300
-300
-300
-300
-300
-300
-300
-300
-300
-300
-300
-300
-300
100
100
100
100
100
100
100
100
100
100
100
82.5209
70.7178
61.7532
54.8312
49.7081
46.3081
44.6101
44.6099
46.3074
49.7069
54.8296
61.7511
70.7155
82.5189
100
100
100
100
100
100
100
100
100
100
100
100
89.6299
79.538
69.9815
61.1776
53.2914
46.4298
40.6429
35.9327
32.2655
29.588
27.8429
26.9835
26.9835
27.8429
29.5879
32.2655
35.9327
40.6429
46.4297
53.2913
61.1775
69.9814
79.538
89.6298
100
-300
-300
-300
-300
-300
-300
-300
-300
-300
-300
-300
-300
-300
-300
-300
-300
-300
-300
-300
-300
-300
-300
-300
-300
100
86.0406
74.3383
64.7891
57.1612
51.3266
47.2269
44.8337
44.1269
45.0848
47.6823
51.8925
57.6905
65.0428
73.7957
82.9825
86.9767
89.1956
90.7521
92.0624
93.3029
94.5538
95.8489
97.196
98.586
100
100
89.6297
79.5377
69.9811
61.1771
53.2908
46.429
40.6421
35.9318
32.2646
29.587
27.8419
26.9824
26.9824
27.8419
29.5869
32.2645
35.9318
40.642
46.4289
53.2906
61.1769
69.981
79.5377
89.6297
100
-300
-300
-300
-300
-300
-300
-300
-300
-300
-300
-300
-300
-300
-300
-300
-300
-300
-300
-300
-300
-300
-300
-300
-300
100
87.689
76.5099
66.8603
58.849
52.5029
47.8252
44.8065
43.4235
43.6379
45.3939
48.6137
53.1813
58.896
65.3484
71.6385
76.1226
79.4077
82.0797
84.4996
86.8708
89.3004
91.8351
94.4809
97.2159
100
100
89.6296
79.5376
69.9808
61.1768
53.2904
46.4287
40.6417
35.9314
32.2641
29.5865
27.8414
26.9819
26.9819
27.8413
29.5864
32.264
35.9312
40.6415
46.4284
53.2902
61.1766
69.9807
79.5375
89.6296
100
-300
-300
-300
-300
-300
-300
-300
-300
-300
-300
-300
-300
-300
-300
-300
-300
-300
-300
-300
-300
-300
-300
-300
-300
100
88.5502
77.805
68.2044
59.987
53.277
48.1325
44.5678
42.5636
42.0714
43.0143
45.282
48.7161
53.0773
57.9909
62.8983
67.1862
70.9034
74.2915
77.5755
80.9148
84.4028
88.0778
91.9333
95.9287
100
100
89.6296
79.5375
69.9807
61.1766
53.2903
46.4285
40.6415
35.9312
32.2639
29.5862
27.8411
26.9816
26.9815
27.8409
29.586
32.2636
35.9308
40.6411
46.428
53.2898
61.1762
69.9804
79.5373
89.6295
100
-300
-300
-300
-300
-300
-300
-300
-300
-300
-300
-300
-300
-300
-300
-300
-300
-300
-300
-300
-300
-300
-300
-300
-300
100
89.0309
78.5786
69.0453
60.7049
53.7281
48.2077
44.177
41.6224
40.4913
40.6965
42.116
44.5861
47.8888
51.7399
55.8041
59.7934
63.661
67.4993
71.4347
75.5729
79.978
84.6673
89.6142
94.7551
100
100
89.6296
79.5375
69.9807
61.1766
53.2902
46.4284
40.6414
35.931
32.2637
29.586
27.8409
26.9813
26.9813
27.8406
29.5856
32.2631
35.9303
40.6406
46.4275
53.2893
61.1758
69.98
79.537
89.6293
100
-300
-300
-300
-300
-300
-300
-300
-300
-300
-300
-300
-300
-300
-300
-300
-300
-300
-300
-300
-300
-300
-300
-300
-300
100
89.3074
79.0374
69.5513
61.124
53.9432
48.1195
43.6984
40.6712
38.9854
38.5525
39.252
40.9337
43.4178
46.5001
49.9744
53.6844
57.5838
61.7097
66.1324
70.916
76.0943
81.6601
87.5634
93.7156
100
100
89.6296
79.5375
69.9807
61.1765
53.2901
46.4283
40.6413
35.9309
32.2636
29.5859
27.8407
26.9811
26.9809
27.8402
29.5851
32.2625
35.9296
40.6398
46.4267
53.2885
61.1751
69.9794
79.5366
89.6291
100
-300
-300
-300
-300
-300
-300
-300
-300
-300
-300
-300
-300
-300
-300
-300
-300
-300
-300
-300
-300
-300
-300
-300
-300
100
89.4668
79.3035
69.8402
61.342
54
47.9318
43.1893
39.7675
37.6165
36.6509
36.7591
37.8105
39.6624
42.1703
45.205
48.6782
52.5614
56.8758
61.6636
66.9609
72.7767
79.0807
85.7995
92.8202
100
100
89.6296
79.5375
69.9806
61.1765
53.2901
46.4283
40.6412
35.9308
32.2634
29.5857
27.8404
26.9807
26.9804
27.8395
29.5842
32.2615
35.9284
40.6385
46.4253
53.2872
61.1738
69.9783
79.5358
89.6287
100
-300
-300
-300
-300
-300
-300
-300
-300
-300
-300
-300
-300
-300
-300
-300
-300
-300
-300
-300
-300
-300
-300
-300
-300
100
89.5565
79.4512
69.9917
61.4321
53.9607
47.6966
42.6942
38.9514
36.4212
35.024
34.6589
35.2147
36.5796
38.6519
41.3512
44.6306
48.4808
52.9217
57.9832
63.6843
70.0153
76.9261
84.3225
92.0694
100
100
89.6296
79.5375
69.9806
61.1765
53.2901
46.4282
40.6411
35.9307
32.2632
29.5853
27.8399
26.98
26.9794
27.8383
29.5827
32.2597
35.9263
40.6361
46.4228
53.2847
61.1715
69.9764
79.5344
89.628
100
-300
-300
-300
-300
-300
-300
-300
-300
-300
-300
-300
-300
-300
-300
-300
-300
-300
-300
-300
-300
-300
-300
-300
-300
100
89.6045
79.5269
70.0593
61.4459
53.8706
47.4514
42.2431
38.2453
35.4142
33.676
32.9402
33.1124
34.1048
35.8461
38.2886
41.4132
45.227
49.7543
55.0206
61.0349
67.7739
75.1722
83.1179
91.4563
100
100
89.6296
79.5374
69.9806
61.1765
53.29
46.4281
40.641
35.9304
32.2628
29.5847
27.839
26.9788
26.9779
27.8363
29.5802
32.2566
35.9227
40.6321
46.4186
53.2805
61.1676
69.9731
79.532
89.6267
100
-300
-300
-300
-300
-300
-300
-300
-300
-300
-300
-300
-300
-300
-300
-300
-300
-300
-300
-300
-300
-300
-300
-300
-300
100
89.6274
79.5597
70.0777
61.4181
53.7603
47.2201
41.852
37.6564
34.5924
32.5911
31.5712
31.4514
32.1621
33.6536
35.901
38.9045
42.6846
47.2715
52.69
58.9433
65.9992
73.7802
82.1602
90.9684
100
100
89.6296
79.5374
69.9806
61.1764
53.2899
46.4279
40.6407
35.93
32.2622
29.5838
27.8377
26.9769
26.9753
27.8329
29.5759
32.2513
35.9166
40.6253
46.4114
53.2732
61.1608
69.9674
79.5279
89.6245
100
-300
-300
-300
-300
-300
-300
-300
-300
-300
-300
-300
-300
-300
-300
-300
-300
-300
-300
-300
-300
-300
-300
-300
-300
100
89.6355
79.5672
70.0684
61.3702
53.6479
47.0153
41.5258
37.1806
33.9406
31.7413
30.5083
30.1703
30.6712
31.9766
34.0776
36.9884
40.7401
45.3681
50.8984
57.3312
64.6282
72.7028
81.4179
90.5899
100
100
89.6296
79.5374
69.9805
61.1763
53.2897
46.4277
40.6403
35.9293
32.2612
29.5823
27.8355
26.9739
26.9711
27.8274
29.5689
32.2428
35.9065
40.614
46.3993
53.2611
61.1496
69.9579
79.5209
89.6209
100
-300
-300
-300
-300
-300
-300
-300
-300
-300
-300
-300
-300
-300
-300
-300
-300
-300
-300
-300
-300
-300
-300
-300
-300
100
89.6346
79.5599
70.044
61.314
53.5422
46.8404
41.2612
36.8056
33.4362
31.0915
29.7023
29.2048
29.5524
30.7217
32.7149
35.5565
39.2853
43.9417
49.5531
56.1182
63.5946
71.8893
80.8568
90.3036
100
100
89.6295
79.5374
69.9804
61.1762
53.2895
46.4273
40.6396
35.9283
32.2596
29.5799
27.8321
26.969
26.9645
27.8186
29.5576
32.2289
35.8902
40.5956
46.3797
53.2413
61.131
69.9421
79.5094
89.6148
100
-300
-300
-300
-300
-300
-300
-300
-300
-300
-300
-300
-300
-300
-300
-300
-300
-300
-300
-300
-300
-300
-300
-300
-300
100
89.6277
79.5427
70.01
61.254
53.4448
46.6925
41.0487
36.5144
33.0526
30.6044
29.1039
28.4928
28.731
29.8029
31.7185
34.5098
38.2213
42.8971
48.5663
55.2272
62.8343
71.2901
80.4431
90.0924
100
100
89.6295
79.5373
69.9803
61.176
53.2892
46.4267
40.6387
35.9268
32.2572
29.5763
27.8267
26.9615
26.9541
27.8048
29.54
32.2072
35.8644
40.5664
46.3482
53.2094
61.1009
69.9165
79.4907
89.6049
100
-300
-300
-300
-300
-300
-300
-300
-300
-300
-300
-300
-300
-300
-300
-300
-300
-300
-300
-300
-300
-300
-300
-300
-300
100
89.6155
79.5167
69.9671
61.1893
53.3521
46.564
40.8757
36.2874
32.7627
30.2436
28.6667
27.9773
28.1399
29.1441
31.0057
33.7615
37.4605
42.1497
47.8596
54.5882
62.2883
70.8595
80.1456
89.9405
100
100
89.6295
79.5372
69.9802
61.1757
53.2886
46.4258
40.6372
35.9244
32.2536
29.5709
27.8188
26.9501
26.9384
27.7839
29.513
32.1736
35.8244
40.5207
46.2987
53.1589
61.0532
69.8755
79.4606
89.589
100
-300
-300
-300
-300
-300
-300
-300
-300
-300
-300
-300
-300
-300
-300
-300
-300
-300
-300
-300
-300
-300
-300
-300
-300
100
89.597
79.4798
69.9116
61.1145
53.256
46.4437
40.7266
36.1043
32.5397
29.9754
28.3492
27.6087
27.7213
28.6806
30.5059
33.2379
36.9285
41.627
47.365
54.1407
61.9058
70.5575
79.9368
89.8338
100
100
89.6294
79.5371
69.9799
61.1752
53.2879
46.4245
40.6351
35.9211
32.2483
29.5629
27.8071
26.9333
26.9152
27.7527
29.4725
32.123
35.7636
40.4509
46.2226
53.0807
60.9786
69.8112
79.4132
89.5637
100
-300
-300
-300
-300
-300
-300
-300
-300
-300
-300
-300
-300
-300
-300
-300
-300
-300
-300
-300
-300
-300
-300
-300
-300
100
89.5695
79.4266
69.8359
61.0197
53.1449
46.3174
40.5847
35.9445
32.3588
29.7696
28.1153
27.3447
27.4272
28.3588
30.1615
32.8786
36.5642
41.2695
47.0269
53.8346
61.644
70.3508
79.7939
89.7608
100
100
89.6293
79.5369
69.9796
61.1746
53.2868
46.4227
40.6322
35.9163
32.2409
29.5516
27.7903
26.9093
26.8817
27.7073
29.4133
32.0484
35.6733
40.3464
46.1075
52.9614
60.8639
69.7116
79.3392
89.5242
100
-300
-300
-300
-300
-300
-300
-300
-300
-300
-300
-300
-300
-300
-300
-300
-300
-300
-300
-300
-300
-300
-300
-300
-300
100
89.5281
79.3482
69.7279
60.8907
53.0027
46.168
40.4312
35.7875
32.1968
29.5999
27.9348
27.1508
27.2187
28.1359
29.9266
32.6358
36.3194
41.03
46.8006
53.63
61.469
70.2126
79.6983
89.7119
100
100
89.6292
79.5367
69.9791
61.1738
53.2854
46.4203
40.6281
35.9098
32.2307
29.536
27.7671
26.8756
26.8344
27.6431
29.3287
31.941
35.5421
40.1929
45.9368
52.7826
60.6901
69.5591
79.225
89.4629
100
-300
-300
-300
-300
-300
-300
-300
-300
-300
-300
-300
-300
-300
-300
-300
-300
-300
-300
-300
-300
-300
-300
-300
-300
100
89.4655
79.2309
69.5695
60.7071
52.8085
45.9744
40.2454
35.6125
32.0323
29.4433
27.7826
26.9994
27.0652
27.9788
29.7657
32.4727
36.157
40.8721
46.6522
53.4961
61.3546
70.1223
79.6359
89.68
100
100
89.6291
79.5364
69.9785
61.1727
53.2835
46.4171
40.6228
35.9011
32.217
29.5149
27.7355
26.8298
26.7696
27.5543
29.2108
31.7899
35.3556
39.9723
45.6884
52.519
60.4305
69.3284
79.0504
89.3684
100
-300
-300
-300
-300
-300
-300
-300
-300
-300
-300
-300
-300
-300
-300
-300
-300
-300
-300
-300
-300
-300
-300
-300
-300
100
89.37
79.0541
69.3349
60.441
52.5348
45.7113
40.0041
35.3981
31.8448
29.2797
27.638
26.8686
26.9434
27.8624
29.6526
32.3621
36.0494
40.7692
46.5563
53.4101
61.2814
70.0646
79.596
89.6596
100
100
89.629
79.536
69.9778
61.1713
53.2811
46.4129
40.6158
35.8898
32.1991
29.4873
27.694
26.7689
26.6831
27.4347
29.0507
31.5825
35.0967
39.6621
45.3339
52.1367
60.0476
68.9823
78.7844
89.2228
100
-300
-300
-300
-300
-300
-300
-300
-300
-300
-300
-300
-300
-300
-300
-300
-300
-300
-300
-300
-300
-300
-300
-300
-300
100
89.2239
78.7867
68.9863
60.0539
52.1461
45.3475
39.6808
35.1217
31.6148
29.0911
27.4838
26.7411
26.8356
27.7684
29.568
32.2842
35.9768
40.7018
46.4947
53.3554
61.2352
70.0284
79.571
89.6469
100
100
89.6288
79.5355
69.9768
61.1696
53.278
46.4077
40.6071
35.8756
32.1764
29.452
27.6407
26.6905
26.5706
27.2781
28.839
31.3052
34.7459
39.2354
44.838
51.5914
59.4897
68.4666
78.3795
88.9975
100
-300
-300
-300
-300
-300
-300
-300
-300
-300
-300
-300
-300
-300
-300
-300
-300
-300
-300
-300
-300
-300
-300
-300
-300
100
88.9981
78.3808
68.4689
59.4934
51.5969
44.8459
39.2462
34.7603
31.3238
28.8622
27.3063
26.6039
26.7287
27.6834
29.4984
32.2252
35.9255
40.6564
46.4547
53.3208
61.2063
70.0059
79.5557
89.6391
100
100
89.6285
79.5349
69.9757
61.1676
53.2744
46.4014
40.5965
35.8582
32.1485
29.4085
27.5744
26.5923
26.4288
27.0788
28.5668
30.9444
34.2831
38.6629
44.1591
50.8272
58.6862
67.701
77.7594
88.6431
100
-300
-300
-300
-300
-300
-300
-300
-300
-300
-300
-300
-300
-300
-300
-300
-300
-300
-300
-300
-300
-300
-300
-300
-300
100
88.6434
77.7601
67.7023
58.6883
50.8303
44.1636
38.669
34.2912
30.9549
28.5798
27.0946
26.4475
26.6137
27.5984
29.4345
32.1759
35.8862
40.6242
46.4278
53.2984
61.1882
69.9921
79.5463
89.6343
100
100
89.6283
79.5343
69.9745
61.1652
53.2701
46.394
40.5839
35.8375
32.1152
29.3562
27.4945
26.4729
26.2552
26.8327
28.2272
30.4888
33.6897
37.9152
43.2522
49.7773
57.5439
66.5673
76.7979
88.0684
100
-300
-300
-300
-300
-300
-300
-300
-300
-300
-300
-300
-300
-300
-300
-300
-300
-300
-300
-300
-300
-300
-300
-300
-300
100
88.0686
76.7984
66.5681
57.5451
49.779
43.2547
37.9186
33.6941
30.4945
28.2344
26.8414
26.2655
26.4847
27.5076
29.3705
32.1302
35.8529
40.5992
46.4085
53.2834
61.1766
69.9835
79.5405
89.6315
100
100
89.628
79.5336
69.9731
61.1626
53.2654
46.3857
40.5697
35.8137
32.0767
29.2955
27.401
26.3325
26.0495
26.5385
27.817
29.9314
32.9526
36.9683
42.0748
48.3698
55.9472
64.894
75.278
87.0858
100
-300
-300
-300
-300
-300
-300
-300
-300
-300
-300
-300
-300
-300
-300
-300
-300
-300
-300
-300
-300
-300
-300
-300
-300
100
87.0859
75.2783
64.8944
55.9478
48.3707
42.0762
36.9701
32.955
29.9345
27.8209
26.5432
26.055
26.3389
27.4081
29.3032
32.0848
35.822
40.5779
46.3935
53.2725
61.1688
69.978
79.537
89.6297
100
100
89.6278
79.533
69.9718
61.16
53.2605
46.3767
40.5541
35.7875
32.0339
29.2274
27.2954
26.1728
25.8136
26.1986
27.3384
29.2733
32.0691
35.8113
40.5992
46.5434
53.7714
62.4485
72.8207
85.2561
100
-300
-300
-300
-300
-300
-300
-300
-300
-300
-300
-300
-300
-300
-300
-300
-300
-300
-300
-300
-300
-300
-300
-300
-300
100
85.2562
72.8209
62.4487
53.7717
46.5439
40.5999
35.8123
32.0704
29.2749
27.3404
26.201
25.8165
26.1761
27.2991
29.2314
32.0382
35.7919
40.5584
46.3808
53.2642
61.1632
69.9744
79.5348
89.6287
100
100
89.6276
79.5326
69.9708
61.1577
53.2557
46.3676
40.5379
35.7598
31.988
29.1537
27.1803
25.9974
25.5528
25.8196
26.8001
28.5253
31.0516
34.4556
38.8289
44.2772
50.9301
58.9798
68.8054
81.3974
100
100
100
100
100
100
100
100
100
100
100
100
100
100
100
100
100
100
100
100
100
100
100
100
100
100
81.3975
68.8055
58.9799
50.9302
44.2774
38.8292
34.4561
31.0523
28.5262
26.8012
25.8209
25.5543
25.9991
27.1822
29.1558
31.9902
35.762
40.5401
46.3698
53.2576
61.1593
69.9721
79.5336
89.6281
100
100
89.6278
79.5327
69.9703
61.1561
53.2517
46.3593
40.5222
35.732
31.9411
29.0773
27.0596
25.812
25.2751
25.4132
26.2183
27.7096
29.9303
32.9413
36.8157
41.6324
47.4741
54.4274
62.5715
71.8626
81.3974
85.2561
87.0857
88.0683
88.6429
88.9972
89.2224
89.3675
89.4613
89.5213
89.5587
89.5803
89.5901
89.5901
89.5803
89.5587
89.5213
89.4613
89.3675
89.2224
88.9972
88.6429
88.0683
87.0857
85.2561
81.3974
71.8626
62.5715
54.4275
47.4742
41.6325
36.8159
32.9416
29.9306
27.71
26.2188
25.4138
25.2758
25.8129
27.0605
29.0783
31.9422
35.7332
40.5233
46.3604
53.2527
61.1569
69.971
79.5331
89.628
100
100
89.6283
79.5336
69.9712
61.1561
53.2496
46.3532
40.5088
35.7064
31.8959
29.0019
26.9386
25.6241
24.9911
24.9945
25.6149
26.858
28.7508
31.3356
34.6607
38.7704
43.6914
49.4092
55.8152
62.5715
68.8054
72.8207
75.278
76.7978
77.7591
78.379
78.7835
79.0487
79.222
79.3337
79.4036
79.4441
79.4626
79.4626
79.4441
79.4036
79.3337
79.222
79.0487
78.7835
78.379
77.7591
76.7978
75.278
72.8207
68.8054
62.5715
55.8152
49.4092
43.6914
38.7705
34.6608
31.3358
28.751
26.8582
25.6152
24.9948
24.9915
25.6245
26.9391
29.0024
31.8965
35.7069
40.5093
46.3537
53.2501
61.1565
69.9715
79.5338
89.6284
100
100
89.6296
79.536
69.9743
61.159
53.2511
46.3512
40.5
35.6859
31.8564
28.9326
26.8241
25.4428
24.7136
24.5818
25.016
26.0079
27.5683
29.7197
32.4868
35.8837
39.8968
44.4591
49.4092
54.4274
58.9798
62.4484
64.8939
66.5672
67.7007
68.4659
68.9811
69.3261
69.5549
69.704
69.798
69.8528
69.8779
69.8779
69.8528
69.798
69.704
69.5549
69.3261
68.9811
68.4659
67.7007
66.5672
64.8939
62.4484
58.9798
54.4274
49.4092
44.4592
39.8968
35.8837
32.4868
29.7197
27.5684
26.008
25.0161
24.5819
24.7138
25.443
26.8243
28.9328
31.8567
35.6862
40.5003
46.3514
53.2514
61.1592
69.9745
79.5362
89.6297
100
100
89.6323
79.5412
69.9814
61.1672
53.2589
46.3565
40.4997
35.6751
31.8278
28.8757
26.724
25.2786
24.4568
24.1945
24.4488
25.1982
26.438
28.1733
30.4094
33.1396
36.3292
39.8968
43.6914
47.4741
50.93
53.7714
55.9471
57.5437
58.6858
59.4889
60.0462
60.4278
60.6851
60.8549
60.9629
61.0262
61.0553
61.0553
61.0262
60.9629
60.8549
60.6851
60.4278
60.0462
59.4889
58.6858
57.5437
55.9471
53.7714
50.93
47.4741
43.6914
39.8968
36.3292
33.1396
30.4095
28.1733
26.438
25.1983
24.4489
24.1945
24.4569
25.2787
26.7241
28.8758
31.8279
35.6752
40.4998
46.3566
53.2591
61.1673
69.9814
79.5412
89.6323
100
100
89.6372
79.5507
69.995
61.1838
53.2772
46.3741
40.5134
35.6801
31.8173
28.8397
26.6483
25.1437
24.2361
23.8526
23.9402
24.4652
25.4095
26.7643
28.5208
30.6598
33.1396
35.8837
38.7704
41.6324
44.2771
46.5433
48.3697
49.777
50.8267
51.5906
52.1351
52.516
52.7772
52.9517
53.0638
53.1299
53.1605
53.1605
53.1299
53.0638
52.9517
52.7772
52.516
52.1351
51.5906
50.8267
49.777
48.3697
46.5433
44.2771
41.6324
38.7704
35.8837
33.1396
30.6598
28.5208
26.7643
25.4095
24.4652
23.9402
23.8526
24.2361
25.1437
26.6483
28.8397
31.8173
35.6802
40.5134
46.3742
53.2772
61.1839
69.995
79.5507
89.6372
100
100
89.6458
79.5675
70.0191
61.2143
53.3122
46.4113
40.5494
35.7102
31.835
28.8356
26.6095
25.0524
24.0683
23.5766
23.5153
23.8407
24.5237
25.5447
26.8855
28.5208
30.4094
32.4868
34.6607
36.8157
38.8289
40.5991
42.0747
43.252
44.1587
44.8371
45.3323
45.6854
45.9313
46.0977
46.2056
46.2697
46.2995
46.2995
46.2697
46.2056
46.0977
45.9313
45.6854
45.3323
44.8371
44.1587
43.252
42.0747
40.5991
38.8289
36.8157
34.6607
32.4868
30.4094
28.5208
26.8855
25.5447
24.5237
23.8407
23.5154
23.5766
24.0683
25.0524
26.6096
28.8356
31.835
35.7103
40.5494
46.4113
53.3122
61.2143
70.0191
79.5675
89.6458
100
100
89.6601
79.5955
70.0599
61.2663
53.3734
46.4789
40.6199
35.7789
31.8953
28.8791
26.6243
25.0227
23.9729
23.3882
23.199
23.3531
23.8133
24.5519
25.5447
26.7643
28.1733
29.7197
31.3356
32.9413
34.4556
35.8113
36.9682
37.915
38.6625