# vtk DataFile Version 2.0
LBE two cylinders
ASCII
DATASET STRUCTURED_POINTS
DIMENSIONS 76 76 1
ASPECT_RATIO 1 1 1
ORIGIN 0 0 0
POINT_DATA 5776
SCALARS temp double 1
LOOKUP_TABLE default
100
100
100
100
100
100
100
100
100
100
100
100
100
100
100
100
100
100
100
100
100
100
100
100
100
100
-300
-300
-300
-300
-300
-300
-300
-300
-300
-300
-300
-300
-300
-300
100
100
100
100
100
100
100
100
100
100
100
100
100
100
100
100
100
100
100
100
100
100
100
100
100
100
-300
-300
-300
-300
-300
-300
-300
-300
-300
-300
100
97.9683
96.0178
94.2199
92.6288
91.2766
90.1732
89.309
88.6603
88.1956
87.8824
87.6915
87.6016
87.6016
87.6915
87.8824
88.1956
88.6603
89.309
90.1732
91.2766
92.6288
94.2199
96.0178
97.9683
100
-300
-300
-300
-300
-300
-300
-300
-300
-300
-300
-300
-300
-300
-300
100
97.9683
96.0178
94.22
92.6289
91.2767
90.1733
89.3091
88.6604
88.1957
87.8825
87.6915
87.6017
87.6017
87.6915
87.8824
88.1957
88.6603
89.309
90.1732
91.2766
92.6288
94.2199
96.0178
97.9683
100
-300
-300
-300
-300
-300
-300
-300
-300
-300
-300
100
96.0178
92.1947
88.6708
85.5521
82.9018
80.7391
79.0453
77.7738
76.8632
76.2492
75.875
75.6989
75.6989
75.875
76.2492
76.8632
77.7738
79.0453
80.7391
82.9018
85.5521
88.6708
92.1947
96.0178
100
-300
-300
-300
-300
-300
-300
-300
-300
-300
-300
-300
-300
-300
-300
100
96.0178
92.1948
88.671
85.5524
82.9021
80.7394
79.0456
77.7741
76.8634
76.2494
75.8752
75.6991
75.6991
75.8751
76.2493
76.8632
77.7738
79.0453
80.7391
82.9018
85.5521
88.6708
92.1947
96.0178
100
-300
-300
-300
-300
-300
-300
-300
-300
-300
-300
100
94.2198
88.6706
83.5558
79.0292
75.1824
72.0434
69.585
67.7396
66.418
65.5269
64.9839
64.7283
64.7283
64.9839
65.5269
66.418
67.7396
69.585
72.0434
75.1824
79.0292
83.5558
88.6706
94.2198
100
-300
-300
-300
-300
-300
-300
-300
-300
-300
-300
-300
-300
-300
-300
100
94.22
88.671
83.5563
79.0298
75.1831
72.0442
69.5857
67.7403
66.4187
65.5275
64.9844
64.7288
64.7287
64.9842
65.5271
66.4181
67.7397
69.585
72.0435
75.1824
79.0292
83.5558
88.6706
94.2198
100
-300
-300
-300
-300
-300
-300
-300
-300
-300
-300
100
92.6285
85.5515
79.0286
73.2558
68.3502
64.3473
61.2122
58.859
57.1738
56.0376
55.3452
55.0194
55.0194
55.3452
56.0376
57.1738
58.859
61.2122
64.3473
68.3502
73.2558
79.0286
85.5515
92.6285
100
-300
-300
-300
-300
-300
-300
-300
-300
-300
-300
-300
-300
-300
-300
100
92.6289
85.5523
79.0297
73.2573
68.3518
64.349
61.214
58.8608
57.1755
56.0391
55.3465
55.0205
55.0203
55.3459
56.0381
57.1742
58.8593
61.2124
64.3474
68.3503
73.2559
79.0286
85.5515
92.6285
100
-300
-300
-300
-300
-300
-300
-300
-300
-300
-300
100
91.2757
82.9002
75.1803
68.3485
62.5429
57.8057
54.0958
51.3111
49.3169
47.9724
47.1532
46.7677
46.7677
47.1532
47.9724
49.3169
51.3111
54.0958
57.8057
62.5429
68.3485
75.1803
82.9002
91.2757
100
-300
-300
-300
-300
-300
-300
-300
-300
-300
-300
-300
-300
-300
-300
100
91.2767
82.902
75.1829
68.3517
62.5466
57.8097
54.0998
51.3151
49.3207
47.9759
47.1562
46.7702
46.7698
47.1548
47.9737
49.3178
51.3117
54.0962
57.806
62.543
68.3485
75.1804
82.9002
91.2757
100
-300
-300
-300
-300
-300
-300
-300
-300
-300
-300
100
90.1712
80.7352
72.0381
64.3415
57.8012
52.4647
48.2855
45.1486
42.9024
41.388
40.4653
40.0311
40.0311
40.4653
41.388
42.9024
45.1486
48.2855
52.4647
57.8012
64.3415
72.0381
80.7352
90.1712
100
-300
-300
-300
-300
-300
-300
-300
-300
-300
-300
-300
-300
-300
-300
100
90.1732
80.7392
72.0438
64.3486
57.8093
52.4734
48.2944
45.1574
42.9107
41.3956
40.4719
40.0367
40.0356
40.4689
41.3908
42.9044
45.15
48.2864
52.4653
57.8015
64.3417
72.0382
80.7352
90.1712
100
-300
-300
-300
-300
-300
-300
-300
-300
-300
-300
100
89.3045
79.0366
69.5728
61.1978
54.0812
48.2746
43.7273
40.3144
37.8706
36.223
35.2191
34.7468
34.7468
35.2191
36.223
37.8706
40.3144
43.7273
48.2746
54.0812
61.1978
69.5728
79.0366
89.3045
100
-300
-300
-300
-300
-300
-300
-300
-300
-300
-300
-300
-300
-300
-300
100
89.3088
79.045
69.5848
61.2128
54.0983
48.2931
43.7463
40.333
37.8881
36.239
35.2332
34.7587
34.7565
35.2268
36.2288
37.8748
40.3174
43.7293
48.2758
54.0819
61.1981
69.5729
79.0366
89.3045
100
-300
-300
-300
-300
-300
-300
-300
-300
-300
-300
100
88.6509
77.7556
67.7137
58.8272
51.2761
45.1151
40.2905
36.6695
34.0767
32.3288
31.2639
30.7628
30.7628
31.2639
32.3288
34.0767
36.6695
40.2905
45.1151
51.2761
58.8272
67.7137
77.7556
88.6509
100
-300
-300
-300
-300
-300
-300
-300
-300
-300
-300
-300
-300
-300
-300
100
88.6598
77.7729
67.7383
58.8579
51.3112
45.153
40.3294
36.7077
34.1129
32.3618
31.2929
30.7874
30.7829
31.2798
32.3409
34.0855
36.6756
40.2945
45.1176
51.2774
58.8278
67.7139
77.7557
88.6509
100
-300
-300
-300
-300
-300
-300
-300
-300
-300
-300
100
88.177
76.8268
66.3656
57.1083
49.2422
42.8244
37.7988
34.0271
31.3264
29.5059
28.3967
27.8747
27.8747
28.3967
29.5059
31.3264
34.0271
37.7988
42.8244
49.2422
57.1083
66.3656
76.8268
88.177
100
-300
-300
-300
-300
-300
-300
-300
-300
-300
-300
-300
-300
-300
-300
100
88.1946
76.861
66.4146
57.1694
49.3122
42.8999
37.8763
34.1034
31.3987
29.5718
28.4547
27.924
27.915
28.4284
29.5299
31.3439
34.0391
37.8067
42.8292
49.2448
57.1095
66.366
76.8268
88.1769
100
-300
-300
-300
-300
-300
-300
-300
-300
-300
-300
100
87.8465
76.1789
65.4254
55.9095
47.8238
41.2269
36.0612
32.1844
29.4086
27.5375
26.3975
25.861
25.861
26.3975
27.5375
29.4086
32.1844
36.0612
41.2269
47.8238
55.9095
65.4254
76.1789
87.8465
100
-300
-300
-300
-300
-300
-300
-300
-300
-300
-300
-300
-300
-300
-300
100
87.8804
76.2449
65.5198
56.0272
47.9588
41.3726
36.2109
32.3319
29.5484
27.665
26.5098
25.9564
25.9391
26.4589
27.584
29.4424
32.2077
36.0763
41.236
47.8286
55.9115
65.4259
76.1788
87.8462
100
-300
-300
-300
-300
-300
-300
-300
-300
-300
-300
100
87.6246
75.7441
64.7943
55.1048
46.8718
40.1548
34.8951
30.9479
28.1217
26.2167
25.056
24.5099
24.5099
25.056
26.2167
28.1217
30.9479
34.8951
40.1548
46.8718
55.1048
64.7943
75.7441
87.6246
100
-300
-300
-300
-300
-300
-300
-300
-300
-300
-300
-300
-300
-300
-300
100
87.6878
75.867
64.9703
55.3245
47.1239
40.4271
35.1752
31.224
28.3836
26.4558
25.2667
24.6888
24.6563
25.1713
26.3038
28.1848
30.9912
34.9231
40.1714
46.8803
55.1082
64.7949
75.7434
87.624
100
-300
-300
-300
-300
-300
-300
-300
-300
-300
-300
100
87.4812
75.463
64.3865
54.5849
46.2566
39.4621
34.1417
30.149
27.2904
25.3634
24.1895
23.6371
23.6371
24.1895
25.3634
27.2904
30.149
34.1417
39.4621
46.2566
54.5849
64.3865
75.463
87.4812
100
-300
-300
-300
-300
-300
-300
-300
-300
-300
-300
-300
-300
-300
-300
100
87.5952
75.6849
64.7041
54.9816
46.7124
39.9549
34.6491
30.6497
27.7655
25.7978
24.5722
23.9622
23.903
24.3987
25.5215
27.4045
30.2271
34.1917
39.4912
46.2711
54.59
64.3865
75.4612
87.4797
100
-300
-300
-300
-300
-300
-300
-300
-300
-300
-300
100
87.3919
75.2881
64.1327
54.2613
45.8738
39.031
33.6729
29.6519
26.773
24.8325
23.6503
23.094
23.094
23.6503
24.8325
26.773
29.6519
33.6729
39.031
45.8738
54.2613
64.1327
75.2881
87.3919
100
-300
-300
-300
-300
-300
-300
-300
-300
-300
-300
-300
-300
-300
-300
100
87.591
75.6755
64.6876
54.955
46.6714
39.8942
34.5627
30.531
27.6082
25.5966
24.3239
23.6661
23.5618
24.018
25.1098
26.9726
29.7878
33.7589
39.08
45.897
54.268
64.1306
75.2833
87.3884
100
-300
-300
-300
-300
-300
-300
-300
-300
-300
-300
100
87.3384
75.1832
63.9804
54.0671
45.6441
38.7724
33.3917
29.3538
26.4628
24.5141
23.3269
22.7683
22.7683
23.3269
24.5141
26.4628
29.3538
33.3917
38.7724
45.6441
54.0671
63.9804
75.1832
87.3384
100
-300
-300
-300
-300
-300
-300
-300
-300
-300
-300
-300
-300
-300
-300
100
87.6747
75.8378
64.9188
55.241
46.9953
40.2365
34.9029
30.8486
27.8845
25.8159
24.4751
23.7434
23.5651
23.9525
24.9847
26.8002
29.5821
33.5346
38.8518
45.6792
54.0741
63.9729
75.1719
87.3308
100
-300
-300
-300
-300
-300
-300
-300
-300
-300
-300
100
87.3074
75.1225
63.8923
53.9548
45.5113
38.6228
33.229
29.1814
26.2834
24.33
23.14
22.58
22.58
23.14
24.33
26.2834
29.1814
33.229
38.6228
45.5113
53.9548
63.8923
75.1225
87.3074
100
-300
-300
-300
-300
-300
-300
-300
-300
-300
-300
-300
-300
-300
-300
100
87.8571
76.1928
65.4277
55.8774
47.7268
41.027
35.7142
31.6433
28.6278
26.4787
25.0356
24.1895
23.8939
24.1697
25.1025
26.8349
29.5518
33.4576
38.7457
45.5604
53.9576
63.872
75.0977
87.2915
100
-300
-300
-300
-300
-300
-300
-300
-300
-300
-300
100
87.2901
75.0886
63.8431
53.8922
45.4372
38.5394
33.1383
29.0852
26.1833
24.2273
23.0357
22.475
22.475
23.0357
24.2273
26.1833
29.0852
33.1383
38.5394
45.4372
53.8922
63.8431
75.0886
87.2901
100
-300
-300
-300
-300
-300
-300
-300
-300
-300
-300
-300
-300
-300
-300
100
88.1593
76.782
66.2741
56.9395
48.9537
42.3615
37.0963
33.0131
29.9293
27.6638
26.0682
25.0481
24.5726
24.6759
25.4537
27.0544
29.665
33.4898
38.7204
45.4991
53.8799
63.7953
75.037
87.2581
100
-300
-300
-300
-300
-300
-300
-300
-300
-300
-300
100
87.2808
75.0703
63.8167
53.8584
45.3973
38.4944
33.0894
29.0334
26.1294
24.172
22.9795
22.4184
22.4184
22.9795
24.172
26.1294
29.0334
33.0894
38.4944
45.3973
53.8584
63.8167
75.0703
87.2808
100
-300
-300
-300
-300
-300
-300
-300
-300
-300
-300
-300
-300
-300
-300
100
88.6109
77.6628
67.5416
58.5337
50.801
44.3793
39.1966
35.1068
31.9317
29.5002
27.6816
26.4042
25.6611
25.5077
26.0546
27.4582
29.9085
33.6084
38.7467
45.4628
53.8084
63.7138
74.9678
87.2186
100
-300
-300
-300
-300
-300
-300
-300
-300
-300
-300
100
87.2759
75.0608
63.8029
53.8409
45.3765
38.4711
33.064
29.0064
26.1014
24.1432
22.9503
22.389
22.389
22.9503
24.1432
26.1014
29.0064
33.064
38.4711
45.3765
53.8409
63.8029
75.0608
87.2759
100
-300
-300
-300
-300
-300
-300
-300
-300
-300
-300
-300
-300
-300
-300
100
89.2456
78.9021
69.3275
60.7849
53.4178
47.2487
42.1969
38.1125
34.8193
32.1579
30.0214
28.3731
27.2439
26.721
26.9368
28.0587
30.2789
33.798
38.8002
45.421
53.7098
63.5955
74.8646
87.1588
100
-300
-300
-300
-300
-300
-300
-300
-300
-300
-300
100
87.2735
75.0561
63.7959
53.832
45.366
38.4593
33.0512
28.9929
26.0873
24.1288
22.9356
22.3742
22.3742
22.9356
24.1288
26.0873
28.9929
33.0512
38.4593
45.366
53.832
63.7959
75.0561
87.2735
100
-300
-300
-300
-300
-300
-300
-300
-300
-300
-300
-300
-300
-300
-300
100
90.0968
80.5657
71.7291
63.8198
56.958
51.1481
46.2959
42.2418
38.8054
35.836
33.2571
31.0865
29.4146
28.3768
28.135
28.8696
30.774
34.043
38.8543
45.3382
53.543
63.3989
74.6924
87.0583
100
-300
-300
-300
-300
-300
-300
-300
-300
-300
-300
100
87.2723
75.0537
63.7926
53.8277
45.361
38.4536
33.045
28.9863
26.0805
24.1218
22.9285
22.367
22.367
22.9285
24.1218
26.0805
28.9863
33.045
38.4536
45.361
53.8277
63.7926
75.0537
87.2723
100
-300
-300
-300
-300
-300
-300
-300
-300
-300
-300
-300
-300
-300
-300
100
91.1911
82.7065
74.8254
67.7443
61.5549
56.2398
51.6853
47.7118
44.1196
40.7525
37.5679
34.6736
32.2569
30.523
29.6716
29.8953
31.3835
34.3207
38.8737
45.1675
53.2515
63.0637
74.3979
86.8848
100
-300
-300
-300
-300
-300
-300
-300
-300
-300
-300
100
87.2717
75.0526
63.791
53.8257
45.3586
38.4509
33.0421
28.9832
26.0772
24.1185
22.9251
22.3637
22.3637
22.9251
24.1185
26.0772
28.9832
33.0421
38.4509
45.3586
53.8257
63.791
75.0526
87.2717
100
-300
-300
-300
-300
-300
-300
-300
-300
-300
-300
-300
-300
-300
-300
100
92.5411
85.3509
78.6581
72.6183
67.2925
62.6395
58.5213
54.7245
51.0001
47.1436
43.1291
39.237
35.8174
33.1722
31.5405
31.1185
32.0819
34.5959
38.8111
44.8459
52.7563
62.5
73.8953
86.5828
100
-300
-300
-300
-300
-300
-300
-300
-300
-300
-300
100
87.2715
75.0521
63.7903
53.8248
45.3575
38.4497
33.0408
28.9818
26.0758
24.117
22.9236
22.3621
22.3621
22.9236
24.117
26.0758
28.9818
33.0408
38.4497
45.3575
53.8248
63.7903
75.0521
87.2715
100
-300
-300
-300
-300
-300
-300
-300
-300
-300
-300
-300
-300
-300
-300
100
94.1398
88.486
83.2121
78.4309
74.1744
70.3815
66.8926
63.4484
59.7028
55.2934
50.101
44.8161
40.0695
36.2744
33.6892
32.4911
32.8236
34.8197
38.6065
44.2935
51.9501
61.5732
73.0418
86.049
100
-300
-300
-300
-300
-300
-300
-300
-300
-300
-300
100
87.2714
75.0519
63.79
53.8244
45.357
38.4492
33.0402
28.9812
26.0751
24.1163
22.9229
22.3615
22.3615
22.9229
24.1163
26.0751
28.9812
33.0402
38.4492
45.357
53.8244
63.79
75.0519
87.2714
100
-300
-300
-300
-300
-300
-300
-300
-300
-300
-300
-300
-300
-300
-300
100
95.9561
92.0518
88.4029
85.0809
82.0958
79.3815
76.7767
73.9904
70.5367
65.6635
58.6055
51.3192
44.8602
39.6871
36.0061
33.9298
33.5438
34.934
38.1936
43.4193
50.6978
60.0882
71.5923
85.0723
100
-300
-300
-300
-300
-300
-300
-300
-300
-300
-300
100
87.2713
75.0518
63.7898
53.8242
45.3568
38.4489
33.0399
28.9809
26.0749
24.116
22.9227
22.3612
22.3612
22.9227
24.116
26.0749
28.9809
33.0399
38.4489
45.3568
53.8242
63.7898
75.0518
87.2713
100
-300
-300
-300
-300
-300
-300
-300
-300
-300
-300
-300
-300
-300
-300
100
97.9347
95.9396
94.0725
92.3674
90.8242
89.3971
87.9733
86.3166
83.9005
79.3644
68.5919
58.3668
49.8361
43.1536
38.3189
35.322
34.1677
34.8822
37.5156
42.141
48.8539
57.7834
69.1233
83.1626
100
-300
-300
-300
-300
-300
-300
-300
-300
-300
-300
100
87.2713
75.0518
63.7898
53.8241
45.3567
38.4488
33.0398
28.9808
26.0747
24.1159
22.9225
22.361
22.361
22.9225
24.1159
26.0747
28.9808
33.0398
38.4488
45.3567
53.8241
63.7898
75.0518
87.2713
100
-300
-300
-300
-300
-300
-300
-300
-300
-300
-300
-300
-300
-300
-300
100
100
100
100
100
100
100
100
100
100
100
79.0099
64.9506
54.3829
46.3191
40.4215
36.5479
34.6271
34.6271
36.5479
40.4215
46.319
54.3829
64.9505
79.0098
100
100
100
100
100
100
100
100
100
100
100
100
87.2713
75.0518
63.7897
53.8241
45.3567
38.4488
33.0398
28.9807
26.0747
24.1159
22.9225
22.361
22.361
22.9225
24.1159
26.0747
28.9807
33.0398
38.4488
45.3567
53.8241
63.7897
75.0518
87.2713
100
-300
-300
-300
-300
-300
-300
-300
-300
-300
-300
-300
-300
-300
-300
-300
-300
-300
-300
-300
-300
-300
-300
-300
-300
100
83.1626
69.1233
57.7833
48.8539
42.1409
37.5155
34.882
34.1675
35.3219
38.3188
43.1534
49.8359
58.3666
68.5918
79.3642
83.9004
86.3165
87.9732
89.397
90.824
92.3673
94.0724
95.9395
97.9346
100
100
87.2713
75.0518
63.7897
53.8241
45.3567
38.4488
33.0398
28.9807
26.0747
24.1158
22.9225
22.361
22.361
22.9225
24.1158
26.0747
28.9807
33.0398
38.4488
45.3567
53.8241
63.7897
75.0518
87.2713
100
-300
-300
-300
-300
-300
-300
-300
-300
-300
-300
-300
-300
-300
-300
-300
-300
-300
-300
-300
-300
-300
-300
-300
-300
100
85.0723
71.5921
60.088
50.6975
43.419
38.1933
34.9336
33.5434
33.9293
36.0056
39.6866
44.8597
51.3187
58.605
65.6631
70.5363
73.99
76.7763
79.3811
82.0955
85.0806
88.4027
92.0516
95.9561
100
100
87.2713
75.0518
63.7897
53.8241
45.3567
38.4488
33.0398
28.9807
26.0747
24.1158
22.9225
22.361
22.361
22.9225
24.1158
26.0747
28.9807
33.0398
38.4488
45.3567
53.8241
63.7897
75.0518
87.2713
100
-300
-300
-300
-300
-300
-300
-300
-300
-300
-300
-300
-300
-300
-300
-300
-300
-300
-300
-300
-300
-300
-300
-300
-300
100
86.0488
73.0414
61.5727
51.9494
44.2926
38.6055
34.8187
32.8225
32.49
33.6881
36.2732
40.0683
44.8149
50.0998
55.2923
59.7017
63.4474
66.8916
70.3806
74.1736
78.4302
83.2116
88.4856
94.1396
100
100
87.2713
75.0518
63.7897
53.8241
45.3567
38.4488
33.0398
28.9807
26.0747
24.1158
22.9225
22.361
22.361
22.9225
24.1158
26.0747
28.9807
33.0398
38.4487
45.3567
53.8241
63.7897
75.0518
87.2713
100
-300
-300
-300
-300
-300
-300
-300
-300
-300
-300
-300
-300
-300
-300
-300
-300
-300
-300
-300
-300
-300
-300
-300
-300
100
86.5823
73.8945
62.4987
52.7547
44.844
38.809
34.5935
32.0794
31.1159
31.5378
33.1696
35.8147
39.2343
43.1265
47.1409
50.9976
54.722
58.519
62.6373
67.2906
72.6166
78.6568
85.35
92.5407
100
100
87.2713
75.0518
63.7897
53.8241
45.3567
38.4488
33.0398
28.9807
26.0747
24.1158
22.9225
22.361
22.361
22.9225
24.1158
26.0746
28.9807
33.0397
38.4487
45.3566
53.8241
63.7897
75.0517
87.2713
100
-300
-300
-300
-300
-300
-300
-300
-300
-300
-300
-300
-300
-300
-300
-300
-300
-300
-300
-300
-300
-300
-300
-300
-300
100
86.8838
74.3959
63.0608
53.2478
45.1631
38.8689
34.3154
31.3779
29.8895
29.6657
30.517
32.2508
34.6675
37.5619
40.7466
44.1138
47.7062
51.68
56.2349
61.5506
67.7406
74.8226
82.7046
91.1901
100
100
87.2713
75.0518
63.7897
53.8241
45.3567
38.4488
33.0398
28.9807
26.0747
24.1158
22.9225
22.361
22.361
22.9224
24.1158
26.0746
28.9807
33.0397
38.4487
45.3566
53.824
63.7896
75.0517
87.2713
100
-300
-300
-300
-300
-300
-300
-300
-300
-300
-300
-300
-300
-300
-300
-300
-300
-300
-300
-300
-300
-300
-300
-300
-300
100
87.0561
74.688
63.3926
53.535
45.3287
38.8436
34.0315
30.7618
28.857
28.122
28.3636
29.4014
31.0732
33.2439
35.823
38.7928
42.2297
46.2845
51.1375
56.9486
63.8119
71.7229
80.5614
90.0946
100
100
87.2713
75.0518
63.7897
53.8241
45.3567
38.4488
33.0398
28.9807
26.0747
24.1158
22.9224
22.3609
22.3609
22.9224
24.1157
26.0746
28.9806
33.0396
38.4486
45.3564
53.8239
63.7895
75.0516
87.2712
100
-300
-300
-300
-300
-300
-300
-300
-300
-300
-300
-300
-300
-300
-300
-300
-300
-300
-300
-300
-300
-300
-300
-300
-300
100
87.1541
74.8554
63.5822
53.6928
45.401
38.7777
33.7736
30.2531
28.0318
26.9093
26.6931
27.2158
28.345
29.9936
32.1305
34.7925
38.0868
42.1726
47.2264
53.398
60.7681
69.3144
78.893
89.2409
100
100
87.2713
75.0518
63.7897
53.8241
45.3567
38.4488
33.0398
28.9807
26.0747
24.1158
22.9224
22.3609
22.3609
22.9223
24.1156
26.0744
28.9804
33.0394
38.4483
45.3562
53.8236
63.7893
75.0514
87.2711
100
-300
-300
-300
-300
-300
-300
-300
-300
-300
-300
-300
-300
-300
-300
-300
-300
-300
-300
-300
-300
-300
-300
-300
-300
100
87.209
74.9489
63.6864
53.7736
45.4218
38.7006
33.5583
29.8555
27.4032
25.9982
25.4506
25.6036
26.3467
27.6245
29.444
31.8769
35.0542
39.1469
44.3336
50.7604
58.4993
67.5147
77.6443
88.6014
100
100
87.2713
75.0518
63.7897
53.8241
45.3567
38.4488
33.0398
28.9807
26.0746
24.1158
22.9224
22.3609
22.3608
22.9222
24.1154
26.0741
28.98
33.0389
38.4478
45.3556
53.823
63.7888
75.051
87.2709
100
-300
-300
-300
-300
-300
-300
-300
-300
-300
-300
-300
-300
-300
-300
-300
-300
-300
-300
-300
-300
-300
-300
-300
-300
100
87.2389
74.9995
63.7409
53.8107
45.4175
38.6288
33.3904
29.5599
26.9452
25.3418
24.5624
24.4584
24.934
25.9549
27.5522
29.8207
32.9087
36.9978
42.2709
48.8732
56.8714
66.2207
76.7451
88.1406
100
100
87.2713
75.0518
63.7897
53.8241
45.3567
38.4488
33.0398
28.9807
26.0746
24.1157
22.9223
22.3607
22.3606
22.9219
24.115
26.0735
28.9792
33.0379
38.4466
45.3543
53.8218
63.7877
75.0502
87.2705
100
-300
-300
-300
-300
-300
-300
-300
-300
-300
-300
-300
-300
-300
-300
-300
-300
-300
-300
-300
-300
-300
-300
-300
-300
100
87.2546
75.0254
63.7674
53.8246
45.4034
38.5695
33.2665
29.3497
26.6251
24.8875
23.9516
23.6745
23.9702
24.818
26.2644
28.4191
31.4427
35.5249
40.8529
47.5721
55.7467
65.3251
76.1221
87.821
100
100
87.2713
75.0518
63.7897
53.8241
45.3567
38.4488
33.0397
28.9807
26.0746
24.1157
22.9222
22.3605
22.3602
22.9213
24.1142
26.0724
28.9777
33.036
38.4443
45.3519
53.8193
63.7855
75.0485
87.2696
100
-300
-300
-300
-300
-300
-300
-300
-300
-300
-300
-300
-300
-300
-300
-300
-300
-300
-300
-300
-300
-300
-300
-300
-300
100
87.262
75.0373
63.778
53.8263
45.3869
38.5238
33.1789
29.206
26.4098
24.5847
23.5469
23.157
23.3356
24.0703
25.4175
27.4963
30.4755
34.5509
39.9129
46.7078
54.998
64.7281
75.7063
87.6076
100
100
87.2713
75.0518
63.7897
53.8241
45.3567
38.4487
33.0397
28.9806
26.0745
24.1155
22.9219
22.3601
22.3595
22.9202
24.1125
26.0701
28.9746
33.0322
38.4399
45.347
53.8144
63.7811
75.0452
87.2678
100
-300
-300
-300
-300
-300
-300
-300
-300
-300
-300
-300
-300
-300
-300
-300
-300
-300
-300
-300
-300
-300
-300
-300
-300
100
87.2643
75.0404
63.779
53.8211
45.3701
38.4889
33.1182
29.1105
26.2696
24.3898
23.288
22.8274
22.9322
23.5955
24.8796
26.9096
29.8597
33.9296
39.312
46.1543
54.5178
64.3447
75.4391
87.4704
100
100
87.2713
75.0518
63.7897
53.8241
45.3566
38.4487
33.0397
28.9806
26.0744
24.1152
22.9214
22.3593
22.3582
22.9182
24.1095
26.0658
28.9689
33.025
38.4313
45.3376
53.805
63.7726
75.0388
87.2643
100
-300
-300
-300
-300
-300
-300
-300
-300
-300
-300
-300
-300
-300
-300
-300
-300
-300
-300
-300
-300
-300
-300
-300
-300
100
87.2628
75.0369
63.7726
53.8101
45.3521
38.4604
33.0749
29.047
26.1799
24.2675
23.1275
22.6241
22.6843
23.3042
24.5496
26.5495
29.4812
33.547
38.9415
45.8124
54.2208
64.1073
75.2736
87.3853
100
100
87.2713
75.0518
63.7897
53.8241
45.3566
38.4487
33.0396
28.9804
26.0741
24.1148
22.9206
22.3578
22.3558
22.9145
24.104
26.0581
28.9585
33.0118
38.4157
45.3203
53.7875
63.7568
75.0267
87.2577
100
-300
-300
-300
-300
-300
-300
-300
-300
-300
-300
-300
-300
-300
-300
-300
-300
-300
-300
-300
-300
-300
-300
-300
-300
100
87.2571
75.0261
63.7573
53.7908
45.3288
38.4322
33.0398
29.0019
26.1211
24.1912
23.0298
22.5022
22.5367
23.1312
24.3539
26.3359
29.2565
33.3197
38.721
45.6087
54.0437
63.9657
75.1747
87.3345
100
100
87.2713
75.0518
63.7897
53.8241
45.3566
38.4486
33.0395
28.9802
26.0736
24.1139
22.9191
22.3553
22.3518
22.9081
24.0945
26.0445
28.9402
32.9884
38.3876
45.2891
53.7557
63.7279
75.0046
87.2457
100
-300
-300
-300
-300
-300
-300
-300
-300
-300
-300
-300
-300
-300
-300
-300
-300
-300
-300
-300
-300
-300
-300
-300
-300
100
87.2455
75.0044
63.7284
53.7578
45.2939
38.3967
33.0035
28.9635
26.0783
24.1411
22.9696
22.4298
22.4507
23.0314
24.2415
26.2134
29.1277
33.1892
38.5943
45.4916
53.9418
63.8841
75.1177
87.3052
100
100
87.2713
75.0518
63.7897
53.8241
45.3566
38.4485
33.0393
28.9798
26.0729
24.1126
22.9167
22.3512
22.345
22.8975
24.0785
26.0216
28.909
32.9482
38.3391
45.2346
53.6996
63.6766
74.965
87.224
100
-300
-300
-300
-300
-300
-300
-300
-300
-300
-300
-300
-300
-300
-300
-300
-300
-300
-300
-300
-300
-300
-300
-300
-300
100
87.224
74.965
63.6769
53.7008
45.2372
38.3439
32.9561
28.9211
26.0391
24.1026
22.9293
22.3853
22.4004
22.9747
24.1785
26.1452
29.0561
33.1168
38.524
45.4266
53.8851
63.8387
75.086
87.2889
100
100
87.2713
75.0517
63.7897
53.824
45.3565
38.4484
33.039
28.9792
26.0718
24.1105
22.913
22.3447
22.3343
22.8804
24.0526
25.9841
28.8575
32.8813
38.2574
45.1419
53.6034
63.5875
74.8957
87.186
100
-300
-300
-300
-300
-300
-300
-300
-300
-300
-300
-300
-300
-300
-300
-300
-300
-300
-300
-300
-300
-300
-300
-300
-300
100
87.1859
74.8957
63.5878
53.604
45.1433
38.2599
32.8853
28.8636
25.9929
24.0647
22.8963
22.3544
22.3693
22.942
24.1435
26.108
29.0175
33.0779
38.4863
45.3917
53.8547
63.8143
75.069
87.2802
100
100
87.2713
75.0517
63.7897
53.824
45.3564
38.4482
33.0386
28.9783
26.0701
24.1073
22.9072
22.3347
22.3177
22.854
24.0122
25.9251
28.7756
32.7736
38.1244
44.989
53.4424
63.4366
74.7769
87.1201
100
-300
-300
-300
-300
-300
-300
-300
-300
-300
-300
-300
-300
-300
-300
-300
-300
-300
-300
-300
-300
-300
-300
-300
-300
100
87.1201
74.7769
63.4367
53.4427
44.9896
38.1256
32.7756
28.7785
25.9293
24.018
22.8616
22.3274
22.3467
22.9213
24.1233
26.0876
28.9969
33.0575
38.4666
45.3735
53.8389
63.8017
75.0601
87.2756
100
100
87.2713
75.0517
63.7896
53.8239
45.3563
38.4479
33.0379
28.9771
26.0676
24.1026
22.8988
22.32
22.2931
22.8144
23.9513
25.8354
28.6496
32.606
37.9143
44.7435
53.1795
63.1859
74.5765
87.0077
100
-300
-300
-300
-300
-300
-300
-300
-300
-300
-300
-300
-300
-300
-300
-300
-300
-300
-300
-300
-300
-300
-300
-300
-300
100
87.0077
74.5765
63.186
53.1797
44.7438
37.9149
32.6069
28.651
25.8374
23.954
22.8181
22.2977
22.3257
22.9054
24.1101
26.0758
28.9858
33.0468
38.4566
45.3643
53.831
63.7953
75.0557
87.2733
100
100
87.2713
75.0517
63.7896
53.8238
45.3561
38.4475
33.037
28.9753
26.0641
24.0961
22.8869
22.2993
22.2582
22.7578
23.8632
25.7042
28.4631
32.354
37.5931
44.3609
52.7608
62.7774
74.2426
86.8171
100
-300
-300
-300
-300
-300
-300
-300
-300
-300
-300
-300
-300
-300
-300
-300
-300
-300
-300
-300
-300
-300
-300
-300
-300
100
86.8171
74.2426
62.7774
52.7609
44.361
37.5933
32.3545
28.4637
25.7051
23.8644
22.7595
22.2602
22.3019
22.8899
24.0995
26.0679
28.9793
33.0411
38.4514
45.3597
53.8271
63.7922
75.0535
87.2722
100
100
87.2713
75.0517
63.7896
53.8237
45.3558
38.4469
33.0359
28.9729
26.0595
24.0874
22.871
22.2713
22.2105
22.68
23.7409
25.5199
28.1975
31.9892
37.1185
43.7821
52.1098
62.1224
73.6899
86.4927
100
-300
-300
-300
-300
-300
-300
-300
-300
-300
-300
-300
-300
-300
-300
-300
-300
-300
-300
-300
-300
-300
-300
-300
-300
100
86.4927
73.6899
62.1224
52.1098
43.7821
37.1186
31.9893
28.1977
25.5203
23.7415
22.6807
22.2115
22.2724
22.8723
24.0889
26.0612
28.9747
33.0377
38.4487
45.3574
53.8251
63.7907
75.0525
87.2717
100
100
87.2713
75.0517
63.7895
53.8236
45.3555
38.4462
33.0344
28.9699
26.0536
24.0762
22.8505
22.235
22.1484
22.5776
23.5784
25.2719
27.8345
31.4813
36.4428
42.9345
51.1231
61.0878
72.7748
85.9304
100
-300
-300
-300
-300
-300
-300
-300
-300
-300
-300
-300
-300
-300
-300
-300
-300
-300
-300
-300
-300
-300
-300
-300
-300
100
85.9304
72.7749
61.0878
51.1231
42.9345
36.4428
31.4814
27.8347
25.2721
23.5786
22.5779
22.1488
22.2355
22.8511
24.0769
26.0544
28.9707
33.0352
38.447
45.3562
53.8242
63.79
75.052
87.2714
100
100
87.2713
75.0516
63.7894
53.8234
45.3551
38.4454
33.0326
28.9663
26.0465
24.0626
22.8253
22.19
22.071
22.4489
23.372
24.953
27.3605
30.8051
35.52
41.7389
49.671
59.4791
71.2498
84.9149
100
-300
-300
-300
-300
-300
-300
-300
-300
-300
-300
-300
-300
-300
-300
-300
-300
-300
-300
-300
-300
-300
-300
-300
-300
100
84.9149
71.2498
59.4791
49.671
41.7389
35.5201
30.8051
27.3606
24.9531
23.3721
22.449
22.0711
22.1902
22.8255
24.0628
26.0468
28.9666
33.033
38.4457
45.3554
53.8237
63.7896
75.0518
87.2713
100
100
87.2712
75.0516
63.7893
53.8232
45.3547
38.4444
33.0306
28.9621
26.0381
24.0466
22.7957
22.1369
21.9789
22.2945
23.1222
24.5625
26.7713
29.9478
34.3197
40.1276
47.6146
57.0338
68.683
82.9437
100
-300
-300
-300
-300
-300
-300
-300
-300
-300
-300
-300
-300
-300
-300
-300
-300
-300
-300
-300
-300
-300
-300
-300
-300
100
82.9437
68.683
57.0338
47.6146
40.1276
34.3197
29.9478
26.7713
24.5626
23.1222
22.2946
21.9789
22.1369
22.7958
24.0467
26.0383
28.9622
33.0307
38.4445
45.3548
53.8233
63.7894
75.0517
87.2713
100
100
87.2712
75.0516
63.7893
53.823
45.3542
38.4433
33.0283
28.9575
26.0289
24.0287
22.7624
22.077
21.8745
22.1185
22.8349
24.1087
26.0773
28.9203
32.846
38.0798
44.8611
53.4728
64.3711
78.6658
100
100
100
100
100
100
100
100
100
100
100
100
100
100
100
100
100
100
100
100
100
100
100
100
100
100
78.6658
64.3711
53.4728
44.8611
38.0798
32.846
28.9203
26.0773
24.1087
22.8349
22.1185
21.8746
22.077
22.7625
24.0288
26.0289
28.9575
33.0284
38.4434
45.3542
53.8231
63.7893
75.0516
87.2713
100
100
87.2712
75.0516
63.7892
53.8229
45.3538
38.4423
33.026
28.9526
26.0191
24.0098
22.727
22.0129
21.7622
21.9279
22.5216
23.6097
25.3065
27.7635
31.1564
35.6691
41.479
48.7444
57.5802
67.9191
78.6658
82.9437
84.9149
85.9304
86.4927
86.8171
87.0077
87.12
87.1858
87.2237
87.2449
87.256
87.2608
87.2608
87.256
87.2449
87.2237
87.1858
87.12
87.0077
86.8171
86.4927
85.9304
84.9149
82.9437
78.6658
67.9191
57.5802
48.7444
41.479
35.6691
31.1564
27.7635
25.3065
23.6097
22.5216
21.9279
21.7622
22.0129
22.727
24.0098
26.0191
28.9526
33.026
38.4423
45.3538
53.8229
63.7892
75.0516
87.2713
100
100
87.2713
75.0516
63.7893
53.8228
45.3534
38.4414
33.0238
28.9479
26.0094
23.9908
22.6911
21.9476
21.6472
21.732
22.1981
23.0917
24.501
26.5458
29.3617
33.0816
37.8096
43.5835
50.3051
57.5802
64.3711
68.683
71.2498
72.7748
73.6898
74.2426
74.5764
74.7768
74.8954
74.9643
75.003
75.0235
75.0323
75.0323
75.0235
75.003
74.9643
74.8954
74.7768
74.5764
74.2426
73.6898
72.7748
71.2498
68.683
64.3711
57.5802
50.3051
43.5835
37.8096
33.0816
29.3617
26.5458
24.501
23.0917
22.1981
21.732
21.6472
21.9476
22.6912
23.9908
26.0094
28.9479
33.0238
38.4414
45.3534
53.8228
63.7893
75.0516
87.2713
100
100
87.2714
75.0518
63.7895
53.823
45.3534
38.4408
33.0221
28.9436
26.0004
23.9727
22.6567
21.8845
21.5357
21.5412
21.882
22.584
23.7094
25.3461
27.5915
30.5324
34.2176
38.6203
43.5835
48.7444
53.4728
57.0338
59.4791
61.0878
62.1224
62.7774
63.1859
63.4364
63.5871
63.6756
63.7259
63.7525
63.764
63.764
63.7525
63.7259
63.6756
63.5871
63.4364
63.1859
62.7774
62.1224
61.0878
59.4791
57.0338
53.4728
48.7444
43.5835
38.6203
34.2176
30.5324
27.5915
25.3461
23.7094
22.584
21.882
21.5412
21.5357
21.8845
22.6567
23.9727
26.0004
28.9436
33.0221
38.4408
45.3534
53.823
63.7895
75.0518
87.2714
100
100
87.2716
75.0523
63.7901
53.8237
45.354
38.441
33.0212
28.9406
25.9929
23.957
22.6259
21.8271
21.4333
21.3653
21.5898
22.1138
22.9762
24.236
25.9586
28.1963
30.9653
34.2176
37.8096
41.479
44.8611
47.6146
49.671
51.1231
52.1098
52.7608
53.1794
53.4422
53.6029
53.6986
53.7534
53.7827
53.7953
53.7953
53.7827
53.7534
53.6986
53.6029
53.4422
53.1794
52.7608
52.1098
51.1231
49.671
47.6146
44.8611
41.479
37.8096
34.2176
30.9653
28.1963
25.9586
24.236
22.9762
22.1138
21.5898
21.3653
21.4333
21.8271
22.6259
23.957
25.9929
28.9406
33.0212
38.441
45.354
53.8237
63.7901
75.0523
87.2716
100
100
87.2722
75.0533
63.7916
53.8255
45.356
38.4428
33.0223
28.9398
25.9883
23.9451
22.6007
21.7786
21.3452
21.2124
21.3345
21.7023
22.3345
23.2671
24.5402
26.1832
28.1963
30.5324
33.0816
35.6691
38.0798
40.1276
41.7389
42.9345
43.782
44.3608
44.7434
44.9888
45.1414
45.2335
45.2868
45.3155
45.3279
45.3279
45.3155
45.2868
45.2335
45.1414
44.9888
44.7434
44.3608
43.782
42.9345
41.7389
40.1276
38.0798
35.6691
33.0816
30.5324
28.1963
26.1832
24.5402
23.2671
22.3345
21.7023
21.3345
21.2124
21.3452
21.7786
22.6007
23.9451
25.9883
28.9398
33.0223
38.4428
45.356
53.8255
63.7916
75.0533
87.2722
100
100
87.2733
75.0556
63.7949
53.8297
45.3608
38.4478
33.0269
28.9431
25.9886
23.9394
22.5839
21.7422
21.2756
21.0885
21.125
21.3627
21.8041
22.4673
23.3744
24.5402
25.9586
27.5915
29.3617
31.1564
32.846
34.3197
35.52
36.4428
37.1184
37.593
37.9142
38.1242
38.257
38.3381
38.3855
38.4112
38.4224
38.4224
38.4112
38.3855
38.3381
38.257
38.1242
37.9142
37.593
37.1184
36.4428
35.52
34.3197
32.846
31.1564
29.3617
27.5915
25.9586
24.5402
23.3744
22.4673
21.8041
21.3627
21.125
21.0885
21.2756
21.7422
22.5839
23.9394
25.9886
28.9431
33.0269
38.4478
45.3608
53.8297
63.7949
75.0556
87.2733
100
100
87.2758
75.0604
63.8018
53.8384
45.3709
38.4589
33.0384
28.954
25.9974
23.9436
22.5794
21.7221
21.229
20.9985
20.9668
21.1012
21.3921
21.8441
22.4673
23.2671
24.236
25.3461
26.5458
27.7635
28.9203
29.9478
30.8051
31.4813
31.9891
32.354
32.6059
32.7734
32.8809
32.9473
32.9865