# vtk DataFile Version 2.0
LBE two cylinders
ASCII
DATASET STRUCTURED_POINTS
DIMENSIONS 76 76 1
ASPECT_RATIO 1 1 1
ORIGIN 0 0 0
POINT_DATA 5776
SCALARS temp double 1
LOOKUP_TABLE default
100
100
100
100
100
100
100
100
100
100
100
100
100
100
100
100
100
100
100
100
100
100
100
100
100
100
-300
-300
-300
-300
-300
-300
-300
-300
-300
-300
-300
-300
-300
-300
100
100
100
100
100
100
100
100
100
100
100
100
100
100
100
100
100
100
100
100
100
100
100
100
100
100
-300
-300
-300
-300
-300
-300
-300
-300
-300
-300
100
99.0939
98.2055
97.3517
96.5479
95.8076
95.1421
94.5603
94.0686
93.6715
93.372
93.1717
93.0713
93.0713
93.1717
93.372
93.6715
94.0686
94.5603
95.1421
95.8076
96.5479
97.3517
98.2055
99.0939
100
-300
-300
-300
-300
-300
-300
-300
-300
-300
-300
-300
-300
-300
-300
100
99.0991
98.2157
97.3664
96.5667
95.8298
95.167
94.5869
94.0962
93.6994
93.3994
93.1979
93.0958
93.0938
93.1918
93.3896
93.6866
94.0812
94.5707
95.1504
95.8141
96.5527
97.3551
98.2077
99.095
100
-300
-300
-300
-300
-300
-300
-300
-300
-300
-300
100
98.2042
96.4433
94.751
93.1578
91.6906
90.3716
89.2183
88.2437
87.4568
86.8632
86.4661
86.2672
86.2672
86.4661
86.8632
87.4568
88.2437
89.2183
90.3716
91.6906
93.1578
94.751
96.4433
98.2042
100
-300
-300
-300
-300
-300
-300
-300
-300
-300
-300
-300
-300
-300
-300
100
98.2155
96.4655
94.7832
93.1989
91.7391
90.4259
89.2766
88.3042
87.5177
86.923
86.5233
86.3208
86.3162
86.51
86.9016
87.4898
88.2714
89.241
90.3897
91.7046
93.1683
94.7584
96.4481
98.2065
100
-300
-300
-300
-300
-300
-300
-300
-300
-300
-300
100
97.3461
94.7439
92.2429
89.8885
87.7202
85.771
84.0666
82.6264
81.4635
80.5862
79.9994
79.7055
79.7055
79.9994
80.5862
81.4635
82.6264
84.0666
85.771
87.7202
89.8885
92.2429
94.7439
97.3461
100
-300
-300
-300
-300
-300
-300
-300
-300
-300
-300
-300
-300
-300
-300
100
97.3655
94.782
92.2984
89.9592
87.8037
85.8644
84.167
82.7306
81.5684
80.6891
80.0979
79.7977
79.7898
80.0749
80.6523
81.5201
82.6739
84.1055
85.802
87.7443
89.9065
92.2556
94.752
97.35
100
-300
-300
-300
-300
-300
-300
-300
-300
-300
-300
100
96.5334
93.1344
89.8677
86.7923
83.96
81.4139
79.1877
77.3065
75.7875
74.6416
73.8751
73.4912
73.4912
73.8751
74.6416
75.7875
77.3065
79.1877
81.4139
83.96
86.7923
89.8677
93.1344
96.5334
100
-300
-300
-300
-300
-300
-300
-300
-300
-300
-300
-300
-300
-300
-300
100
96.5643
93.195
89.9557
86.9046
84.0928
81.5625
79.3472
77.472
75.9542
74.8052
74.0317
73.6377
73.6251
73.9949
74.7464
75.8773
77.3817
79.2492
81.4629
83.998
86.8206
89.8876
93.1471
96.5396
100
-300
-300
-300
-300
-300
-300
-300
-300
-300
-300
100
95.7776
91.6375
87.6585
83.9126
80.4628
77.3616
74.6501
72.3587
70.5085
69.1127
68.1792
67.7116
67.7116
68.1792
69.1127
70.5085
72.3587
74.6501
77.3616
80.4628
83.9126
87.6585
91.6375
95.7776
100
-300
-300
-300
-300
-300
-300
-300
-300
-300
-300
-300
-300
-300
-300
100
95.8248
91.7302
87.7932
84.0845
80.6659
77.5889
74.8942
72.6121
70.7637
69.3632
68.4188
67.9356
67.9164
68.3622
69.2728
70.6454
72.4732
74.7436
77.4361
80.5204
83.9554
87.6886
91.6566
95.7869
100
-300
-300
-300
-300
-300
-300
-300
-300
-300
-300
100
95.0873
90.2703
85.6407
81.2823
77.2685
73.6603
70.5054
67.8394
65.6867
64.0628
62.9766
62.4326
62.4326
62.9766
64.0628
65.6867
67.8394
70.5054
73.6603
77.2685
81.2823
85.6407
90.2703
95.0873
100
-300
-300
-300
-300
-300
-300
-300
-300
-300
-300
-300
-300
-300
-300
100
95.1578
90.4087
85.842
81.5393
77.5721
74.0001
70.8704
68.2183
66.0684
64.4372
63.3348
62.7674
62.7384
63.2498
64.3015
65.8907
68.0097
70.6443
73.7706
77.3536
81.3455
85.685
90.2983
95.1008
100
-300
-300
-300
-300
-300
-300
-300
-300
-300
-300
100
94.468
89.0438
83.8306
78.9228
74.4031
70.34
66.7875
63.7855
61.3615
59.5329
58.3098
57.6972
57.6972
58.3098
59.5329
61.3615
63.7855
66.7875
70.34
74.4031
78.9228
83.8306
89.0438
94.468
100
-300
-300
-300
-300
-300
-300
-300
-300
-300
-300
-300
-300
-300
-300
100
94.5715
89.247
84.126
79.3
74.8488
70.839
67.3234
64.3417
61.9219
60.0825
58.8355
58.1883
58.1456
58.71
59.8822
61.6595
64.0339
66.9897
70.5003
74.5263
79.0141
83.8944
89.084
94.4874
100
-300
-300
-300
-300
-300
-300
-300
-300
-300
-300
100
93.9224
87.9632
82.2359
76.8441
71.8787
67.4149
63.5121
60.214
57.5509
55.542
54.1983
53.5253
53.5253
54.1983
55.542
57.5509
60.214
63.5121
67.4149
71.8787
76.8441
82.2359
87.9632
93.9224
100
-300
-300
-300
-300
-300
-300
-300
-300
-300
-300
-300
-300
-300
-300
100
94.0718
88.2565
82.6625
77.3888
72.5223
68.1357
64.2863
61.0177
58.3606
56.336
54.9575
54.2342
54.172
54.775
56.0447
57.9791
60.5703
63.8012
67.6435
72.0539
76.9734
82.326
88.0199
93.9497
100
-300
-300
-300
-300
-300
-300
-300
-300
-300
-300
100
93.4503
87.0282
80.856
75.0455
69.6943
64.8838
60.6779
57.1237
54.2538
52.0888
50.6407
49.9155
49.9155
50.6407
52.0888
54.2538
57.1237
60.6779
64.8838
69.6943
75.0455
80.856
87.0282
93.4503
100
-300
-300
-300
-300
-300
-300
-300
-300
-300
-300
-300
-300
-300
-300
100
93.6627
87.4452
81.4626
75.82
70.6098
65.9092
61.7795
58.2672
55.4058
53.2183
51.7205
50.923
50.8339
51.4588
52.8008
54.8591
57.6261
61.0846
65.2043
69.9391
75.2253
80.981
87.1066
93.4879
100
-300
-300
-300
-300
-300
-300
-300
-300
-300
-300
100
93.0491
86.2336
79.6833
73.5168
67.8379
62.7327
58.2691
54.4972
51.4516
49.1541
47.6173
46.8476
46.8476
47.6173
49.1541
51.4516
54.4972
58.2691
62.7327
67.8379
73.5168
79.6833
86.2336
93.0491
100
-300
-300
-300
-300
-300
-300
-300
-300
-300
-300
-300
-300
-300
-300
100
93.3464
86.8176
80.5329
74.602
69.1208
64.1699
59.8135
56.1005
53.0667
50.7372
49.13
48.2582
48.1322
48.7599
50.1469
52.2939
55.1945
58.8318
63.1743
68.1737
73.7624
79.8531
86.3397
93.0999
100
-300
-300
-300
-300
-300
-300
-300
-300
-300
-300
100
92.7141
85.5702
78.7043
72.2407
66.2881
60.937
56.2584
52.3047
49.1124
46.7042
45.0934
44.2866
44.2866
45.0934
46.7042
49.1124
52.3047
56.2584
60.937
66.2881
72.2407
78.7043
85.5702
92.7141
100
-300
-300
-300
-300
-300
-300
-300
-300
-300
-300
-300
-300
-300
-300
100
93.1244
86.3761
79.877
73.7389
68.0599
62.9223
58.3921
54.5201
51.3439
48.891
47.1818
46.2325
46.0566
46.6654
48.0673
50.266
53.2568
57.0237
61.5349
66.7405
72.5697
78.9305
85.7108
92.7812
100
-300
-300
-300
-300
-300
-300
-300
-300
-300
-300
100
92.4395
85.0263
77.9015
71.1942
65.0173
59.4645
54.6095
50.5069
47.1942
44.6953
43.0238
42.1867
42.1867
43.0238
44.6953
47.1942
50.5069
54.6095
59.4645
65.0173
71.1942
77.9015
85.0263
92.4395
100
-300
-300
-300
-300
-300
-300
-300
-300
-300
-300
-300
-300
-300
-300
100
92.9974
86.1223
79.4968
73.2329
67.429
62.1678
57.5157
53.5246
50.2337
47.6729
45.8658
44.8321
44.5897
45.1542
46.5384
48.7495
51.7859
55.633
60.2599
65.6154
71.6262
78.1964
85.2083
92.526
100
-300
-300
-300
-300
-300
-300
-300
-300
-300
-300
100
92.2182
84.5881
77.2548
70.3513
63.9936
58.2784
53.2814
49.0587
45.6491
43.0771
41.3567
40.4951
40.4951
41.3567
43.0771
45.6491
49.0587
53.2814
58.2784
63.9936
70.3513
77.2548
84.5881
92.2182
100
-300
-300
-300
-300
-300
-300
-300
-300
-300
-300
-300
-300
-300
-300
100
92.966
86.0573
79.394
73.0861
67.2302
61.9077
57.1843
53.1121
49.7315
47.0749
45.1696
44.0403
43.7103
44.2012
45.5314
47.7131
50.7488
54.6268
59.3173
64.7689
70.9065
77.6305
84.8181
92.3268
100
-300
-300
-300
-300
-300
-300
-300
-300
-300
-300
100
92.0431
84.2413
76.7431
69.6842
63.1836
57.3397
52.2303
47.9127
44.4265
41.7966
40.0375
39.1565
39.1565
40.0375
41.7966
44.4265
47.9127
52.2303
57.3397
63.1836
69.6842
76.7431
84.2413
92.0431
100
-300
-300
-300
-300
-300
-300
-300
-300
-300
-300
-300
-300
-300
-300
100
93.0312
86.1831
79.5713
73.3016
67.4668
62.1451
57.4002
53.283
49.8348
47.0906
45.0823
43.8408
43.3967
43.7795
45.0151
47.1224
50.1094
53.9682
58.6714
64.1681
70.3818
77.2096
84.5238
92.1755
100
-300
-300
-300
-300
-300
-300
-300
-300
-300
-300
100
91.907
83.9717
76.3452
69.1656
62.5538
56.61
51.4132
47.0218
43.4759
40.8011
39.0119
38.1159
38.1159
39.0119
40.8011
43.4759
47.0218
51.4132
56.61
62.5538
69.1656
76.3452
83.9717
91.907
100
-300
-300
-300
-300
-300
-300
-300
-300
-300
-300
-300
-300
-300
-300
100
93.1942
86.5021
80.0324
73.8844
68.1448
62.8866
58.1695
54.0422
50.5458
47.7181
45.5965
44.2199
43.6288
43.8629
44.958
46.9418
49.8292
53.6179
58.2836
63.7767
70.0201
76.9078
84.3073
92.0624
100
-300
-300
-300
-300
-300
-300
-300
-300
-300
-300
100
91.803
83.7658
76.0413
68.7695
62.0727
56.0526
50.789
46.3412
42.7498
40.0406
38.2285
37.321
37.321
38.2285
40.0406
42.7498
46.3412
50.789
56.0526
62.0727
68.7695
76.0413
83.7658
91.803
100
-300
-300
-300
-300
-300
-300
-300
-300
-300
-300
-300
-300
-300
-300
100
93.4566
87.0175
80.7824
74.8414
69.2731
64.1427
59.5037
55.4005
51.873
48.9615
46.7099
45.168
44.3889
44.4261
45.3284
47.1345
49.8684
53.5344
58.1126
63.5558
69.7866
76.6967
84.1482
91.9771
100
-300
-300
-300
-300
-300
-300
-300
-300
-300
-300
100
91.725
83.6112
75.8132
68.4721
61.7116
55.6342
50.3206
45.8304
42.2048
39.4699
37.6406
36.7244
36.7244
37.6406
39.4699
42.2048
45.8304
50.3206
55.6342
61.7116
68.4721
75.8132
83.6112
91.725
100
-300
-300
-300
-300
-300
-300
-300
-300
-300
-300
-300
-300
-300
-300
100
93.82
87.7329
81.8268
76.181
70.8629
65.9276
61.4193
57.3755
53.8325
50.8322
48.4266
46.6795
45.6616
45.4447
46.0941
47.6626
50.185
53.6736
58.1141
63.4626
69.6426
76.5438
84.023
91.9071
100
-300
-300
-300
-300
-300
-300
-300
-300
-300
-300
100
91.6674
83.4972
75.6449
68.2528
61.4453
55.3256
49.9751
45.4537
41.8029
39.049
37.2069
36.2844
36.2844
37.2069
39.049
41.8029
45.4537
49.9751
55.3256
61.4453
68.2528
75.6449
83.4972
91.6674
100
-300
-300
-300
-300
-300
-300
-300
-300
-300
-300
-300
-300
-300
-300
100
94.2854
88.6506
83.1705
77.911
72.9263
68.2582
63.9382
59.9923
56.4492
53.3503
50.7571
48.7525
47.4324
46.8929
47.2207
48.4852
50.7336
53.9875
58.2393
63.4495
69.5437
76.4111
83.9035
91.8372
100
-300
-300
-300
-300
-300
-300
-300
-300
-300
-300
100
91.6257
83.4146
75.523
68.0939
61.2523
55.102
49.7246
45.1807
41.5116
38.7439
36.8926
35.9655
35.9654
36.8926
38.7439
41.5116
45.1806
49.7246
55.102
61.2523
68.0939
75.523
83.4146
91.6257
100
-300
-300
-300
-300
-300
-300
-300
-300
-300
-300
-300
-300
-300
-300
100
94.8528
89.7711
84.8153
80.0366
75.4739
71.1525
67.0865
63.284
59.7591
56.5469
53.7191
51.3877
49.6849
48.7409
48.6684
49.5558
51.4637
54.423
58.4337
63.4619
69.4379
76.2525
83.7541
91.7479
100
-300
-300
-300
-300
-300
-300
-300
-300
-300
-300
100
91.596
83.3557
75.4361
67.9807
61.1148
54.9427
49.5463
44.9862
41.3041
38.5266
36.6687
35.7383
35.7383
36.6687
38.5265
41.3041
44.9861
49.5462
54.9426
61.1147
67.9806
75.4361
83.3557
91.596
100
-300
-300
-300
-300
-300
-300
-300
-300
-300
-300
-300
-300
-300
-300
100
95.5198
91.0904
86.7575
82.557
78.5109
74.6259
70.893
67.2938
63.8139
60.4691
57.3393
54.585
52.3961
50.9491
50.3879
50.82
52.3178
54.9207
58.6358
63.437
69.2622
76.0089
83.527
91.6114
100
-300
-300
-300
-300
-300
-300
-300
-300
-300
-300
100
91.5752
83.3145
75.3753
67.9014
61.0185
54.8311
49.4214
44.85
41.1588
38.3744
36.512
35.5792
35.5792
36.512
38.3744
41.1588
44.8499
49.4213
54.8311
61.0185
67.9013
75.3753
83.3145
91.5751
100
-300
-300
-300
-300
-300
-300
-300
-300
-300
-300
-300
-300
-300
-300
100
96.2809
92.5986
88.9848
85.4607
82.0323
78.6864
75.3869
72.0769
68.6908
65.1931
61.6564
58.3386
55.5276
53.4615
52.3158
52.2123
53.2303
55.4141
58.777
63.3019
68.9395
75.6026
83.1536
91.3854
100
-300
-300
-300
-300
-300
-300
-300
-300
-300
-300
100
91.5608
83.2862
75.3334
67.8468
60.9522
54.7543
49.3354
44.7562
41.0588
38.2697
36.4041
35.4697
35.4697
36.404
38.2696
41.0587
44.7562
49.3353
54.7542
60.9522
67.8467
75.3334
83.2861
91.5608
100
-300
-300
-300
-300
-300
-300
-300
-300
-300
-300
-300
-300
-300
-300
100
97.1265
94.2774
91.4722
88.7202
86.0147
83.3255
80.5899
77.7027
74.5124
70.8572
66.7252
62.6231
59.01
56.1938
54.3679
53.654
54.1278
55.832
58.7834
62.9749
68.3759
74.9278
82.5289
90.9969
100
-300
-300
-300
-300
-300
-300
-300
-300
-300
-300
100
91.5511
83.267
75.3051
67.8099
60.9074
54.7024
49.2772
44.6928
40.9912
38.1988
36.3311
35.3956
35.3956
36.331
38.1987
40.991
44.6927
49.2771
54.7022
60.9073
67.8098
75.305
83.2669
91.5511
100
-300
-300
-300
-300
-300
-300
-300
-300
-300
-300
-300
-300
-300
-300
100
98.042
96.0982
94.179
92.286
90.4062
88.5026
86.4981
84.2463
81.48
77.7558
72.6114
67.3565
62.7146
59.0193
56.4351
55.0541
54.9323
56.103
58.5816
62.3701
67.4611
73.8406
81.4825
90.3033
100
-300
-300
-300
-300
-300
-300
-300
-300
-300
-300
100
91.5447
83.2542
75.2863
67.7853
60.8776
54.6678
49.2385
44.6506
40.9461
38.1516
36.2825
35.3463
35.3463
36.2824
38.1515
40.9459
44.6504
49.2382
54.6675
60.8773
67.7851
75.2861
83.254
91.5446
100
-300
-300
-300
-300
-300
-300
-300
-300
-300
-300
-300
-300
-300
-300
100
99.0078
98.022
97.0467
96.081
95.1146
94.1206
93.0398
91.7396
89.9009
86.6543
79.3078
72.3007
66.4062
61.7557
58.3837
56.3142
55.569
56.1642
58.1095
61.4111
66.0805
72.1545
79.7276
88.9807
100
-300
-300
-300
-300
-300
-300
-300
-300
-300
-300
100
91.5405
83.2458
75.2739
67.7693
60.8581
54.6452
49.2132
44.623
40.9166
38.1207
36.2506
35.314
35.3139
36.2504
38.1204
40.9162
44.6225
49.2127
54.6447
60.8576
67.7688
75.2736
83.2456
91.5403
100
-300
-300
-300
-300
-300
-300
-300
-300
-300
-300
-300
-300
-300
-300
100
100
100
100
100
100
100
100
100
100
100
86.1934
76.8336
69.6992
64.1731
60.0717
57.3432
55.9772
55.9736
57.3326
60.0544
64.15
69.6719
76.8052
86.1706
100
100
100
100
100
100
100
100
100
100
100
100
91.5378
83.2405
75.266
67.7589
60.8455
54.6306
49.1969
44.6052
40.8976
38.1008
36.23
35.293
35.2929
36.2297
38.1003
40.8969
44.6044
49.196
54.6297
60.8446
67.7581
75.2654
83.24
91.5375
100
-300
-300
-300
-300
-300
-300
-300
-300
-300
-300
-300
-300
-300
-300
-300
-300
-300
-300
-300
-300
-300
-300
-300
-300
100
88.9836
79.728
72.1488
66.0668
61.3885
58.078
56.1241
55.5209
56.2589
58.3223
61.6897
66.3376
72.2324
79.2439
86.5996
89.851
91.6936
92.9978
94.0833
95.0824
96.0545
97.0264
98.0082
99.0008
100
100
91.536
83.2371
75.261
67.7524
60.8375
54.6214
49.1865
44.5938
40.8854
38.088
36.2168
35.2795
35.2794
36.2162
38.0871
40.8843
44.5925
49.185
54.6198
60.836
67.751
75.2599
83.2363
91.5356
100
-300
-300
-300
-300
-300
-300
-300
-300
-300
-300
-300
-300
-300
-300
-300
-300
-300
-300
-300
-300
-300
-300
-300
-300
100
90.2925
81.4592
73.8036
67.4098
62.3047
58.5028
56.0121
54.8309
54.9437
56.3177
58.897
62.5899
67.2323
72.4909
77.6417
81.3726
84.1465
86.407
88.4214
90.3362
92.2285
94.1349
96.0683
98.0269
100
100
91.535
83.2349
75.2578
67.7482
60.8325
54.6155
49.1799
44.5866
40.8777
38.0798
36.2082
35.2708
35.2705
36.2074
38.0784
40.8758
44.5843
49.1774
54.613
60.83
67.746
75.256
83.2336
91.5343
100
-300
-300
-300
-300
-300
-300
-300
-300
-300
-300
-300
-300
-300
-300
-300
-300
-300
-300
-300
-300
-300
-300
-300
-300
100
90.9727
82.4801
74.8547
68.2792
62.8559
58.6442
55.6748
53.9552
53.469
54.1734
55.9929
58.8061
62.4198
66.5259
70.6651
74.33
77.5324
80.4341
83.1865
85.8949
88.6216
91.3966
94.2261
97.1006
100
100
91.5343
83.2336
75.2558
67.7456
60.8293
54.6118
49.1757
44.5819
40.8726
38.0744
36.2025
35.2648
35.2643
36.2011
38.0721
40.8695
44.5783
49.1716
54.6077
60.8253
67.742
75.2529
83.2315
91.5332
100
-300
-300
-300
-300
-300
-300
-300
-300
-300
-300
-300
-300
-300
-300
-300
-300
-300
-300
-300
-300
-300
-300
-300
-300
100
91.3446
83.0724
75.4824
68.7824
63.1105
58.5547
55.1648
52.9582
51.9219
52.0117
53.1483
55.2102
58.0218
61.345
64.8917
68.4038
71.8084
75.141
78.467
81.8431
85.3049
88.8653
92.5177
96.24
100
100
91.5339
83.2327
75.2546
67.744
60.8273
54.6094
49.1729
44.5788
40.8691
38.0705
36.1983
35.2603
35.2595
36.196
38.0668
40.8641
44.5728
49.1663
54.6026
60.8207
67.7381
75.2498
83.2293
91.5321
100
-300
-300
-300
-300
-300
-300
-300
-300
-300
-300
-300
-300
-300
-300
-300
-300
-300
-300
-300
-300
-300
-300
-300
-300
100
91.5481
83.4016
75.8238
69.0208
63.1439
58.2964
54.541
51.9043
50.3794
49.9271
50.4752
51.916
54.1057
56.8678
60.0122
63.3784
66.8861
70.5195
74.2925
78.2234
82.3203
86.576
90.9674
95.4577
100
100
91.5336
83.2322
75.2538
67.7429
60.8259
54.6077
49.1709
44.5764
40.8663
38.0673
36.1947
35.2562
35.2549
36.1909
38.0613
40.8583
44.5668
49.1603
54.5968
60.8154
67.7334
75.246
83.2267
91.5307
100
-300
-300
-300
-300
-300
-300
-300
-300
-300
-300
-300
-300
-300
-300
-300
-300
-300
-300
-300
-300
-300
-300
-300
-300
100
91.6532
83.5667
75.9761
69.0781
63.0255
57.9289
53.8589
50.8497
48.9021
47.9852
48.0385
48.9737
50.6777
53.0206
55.8699
59.1135
62.6795
66.5325
70.6582
75.0474
79.6856
84.5461
89.5887
94.7607
100
100
91.5334
83.2318
75.2531
67.742
60.8247
54.6062
49.1691
44.5742
40.8636
38.0641
36.1908
35.2516
35.2496
36.1849
38.0545
40.851
44.5591
49.1524
54.5891
60.8081
67.727
75.2408
83.223
91.5289
100
-300
-300
-300
-300
-300
-300
-300
-300
-300
-300
-300
-300
-300
-300
-300
-300
-300
-300
-300
-300
-300
-300
-300
-300
100
91.6988
83.6295
76.0074
69.0182
62.8125
57.5029
53.1649
49.8389
47.533
46.226
45.8705
46.3972
47.7194
49.7406
52.3651
55.5098
59.1126
63.1321
67.5388
72.3057
77.4002
82.7787
88.3852
94.1514
100
100
91.5332
83.2314
75.2526
67.7412
60.8237
54.6048
49.1671
44.5717
40.8605
38.0601
36.1859
35.2456
35.2425
36.1767
38.0453
40.8408
44.5482
49.1412
54.578
60.7976
67.7177
75.2333
83.2177
91.5261
100
-300
-300
-300
-300
-300
-300
-300
-300
-300
-300
-300
-300
-300
-300
-300
-300
-300
-300
-300
-300
-300
-300
-300
-300
100
91.7083
83.6296
75.9641
68.8883
62.5488
57.058
52.4942
48.9028
46.2985
44.6694
43.9806
44.1795
45.2005
46.9718
49.4222
52.488
56.1167
60.2658
64.8981
69.9749
75.4501
81.2662
87.3531
93.6282
100
100
91.5331
83.2311
75.252
67.7403
60.8224
54.603
49.1648
44.5686
40.8564
38.0548
36.1793
35.2375
35.2327
36.1651
38.0321
40.8261
44.5324
49.1248
54.5616
60.7822
67.704
75.2221
83.2098
91.522
100
-300
-300
-300
-300
-300
-300
-300
-300
-300
-300
-300
-300
-300
-300
-300
-300
-300
-300
-300
-300
-300
-300
-300
-300
100
91.6961
83.5923
75.8776
68.7212
62.2654
56.6217
51.8702
48.0596
45.2108
43.3197
42.3626
42.3005
43.0844
44.6606
46.9756
49.9795
53.6277
57.8794
62.6931
68.0228
73.8123
79.9931
86.4828
93.1866
100
100
91.5328
83.2306
75.2512
67.7392
60.8208
54.6008
49.1616
44.5643
40.8507
38.0475
36.17
35.226
35.2187
36.1486
38.013
40.8048
44.5094
49.1008
54.5377
60.7594
67.6837
75.2055
83.198
91.5159
100
-300
-300
-300
-300
-300
-300
-300
-300
-300
-300
-300
-300
-300
-300
-300
-300
-300
-300
-300
-300
-300
-300
-300
-300
100
91.6714
83.5336
75.7682
68.5382
61.9824
56.2113
51.3055
47.3169
44.2707
42.1699
40.9995
40.7316
41.33
42.7545
44.9645
47.9206
51.5847
55.9179
60.8774
66.4118
72.4579
78.9384
85.761
92.82
100
100
91.5326
83.23
75.2503
67.7377
60.8186
54.5977
49.1574
44.5585
40.843
38.0374
36.157
35.2097
35.1989
36.125
37.9858
40.7742
44.4762
49.066
54.5027
60.726
67.6538
75.181
83.1806
91.5068
100
-300
-300
-300
-300
-300
-300
-300
-300
-300
-300
-300
-300
-300
-300
-300
-300
-300
-300
-300
-300
-300
-300
-300
-300
100
91.6392
83.4631
75.6475
68.3513
61.7105
55.8343
50.8038
46.6728
43.4702
41.2043
39.867
39.4391
39.894
41.2018
43.3314
46.2513
49.9287
54.3272
59.403
65.1018
71.3551
78.0785
85.1718
92.5206
100
100
91.5322
83.2293
75.249
67.7358
60.8157
54.5935
49.1515
44.5505
40.8323
38.0233
36.1389
35.187
35.1711
36.0918
37.9471
40.7306
44.4286
49.0159
54.4521
60.6776
67.6103
75.1452
83.1552
91.4936
100
-300
-300
-300
-300
-300
-300
-300
-300
-300
-300
-300
-300
-300
-300
-300
-300
-300
-300
-300
-300
-300
-300
-300
-300
100
91.6022
83.3852
75.5209
68.1655
61.4528
55.491
50.3613
46.1187
42.7946
40.4014
38.9363
38.3863
38.7322
39.9518
42.0211
44.9147
48.6039
53.0545
58.2228
64.0523
70.4706
77.3882
84.6985
92.28
100
100
91.5317
83.2283
75.2473
67.7331
60.8118
54.5879
49.1437
44.5397
40.8177
38.0041
36.1142
35.1558
35.1326
36.0456
37.8932
40.6694
44.3613
48.9447
54.38
60.608
67.5475
75.0934
83.1182
91.4743
100
-300
-300
-300
-300
-300
-300
-300
-300
-300
-300
-300
-300
-300
-300
-300
-300
-300
-300
-300
-300
-300
-300
-300
-300
100
91.5608
83.3002
75.3884
67.9795
61.2061
55.1753
49.9682
45.6403
42.2247
39.7363
38.1761
37.5357
37.8013
38.9562
40.9818
43.8573
47.5575
52.0499
57.2912
63.2235
69.7718
76.8426
84.3243
92.0897
100
100
91.5311
83.227
75.2451
67.7297
60.8067
54.5805
49.1333
44.5253
40.7983
37.9784
36.0808
35.1135
35.0802
35.9824
37.8188
40.5846
44.2676
48.8449
54.2781
60.5093
67.4579
75.0192
83.0649
91.4465
100
-300
-300
-300
-300
-300
-300
-300
-300
-300
-300
-300
-300
-300
-300
-300
-300
-300
-300
-300
-300
-300
-300
-300
-300
100
91.5136
83.2055
75.2454
67.787
60.9617
54.876
49.6102
45.2197
41.7382
39.182
37.5544
36.8502
37.0594
38.1693
40.1652
43.0299
46.7408
51.2671
56.5659
62.5785
69.2279
76.4178
84.0329
91.9414
100
100
91.5304
83.2253
75.2422
67.7252
60.8001
54.571
49.1197
44.5065
40.7727
37.9444
36.0365
35.0571
35.01
35.8971
37.7179
40.4686
44.1386
48.7066
54.1359
60.3705
67.3311
74.9134
82.9887
91.4065
100
-300
-300
-300
-300
-300
-300
-300
-300
-300
-300
-300
-300
-300
-300
-300
-300
-300
-300
-300
-300
-300
-300
-300
-300
100
91.4573
83.0948
75.0833
67.5767
60.7064
54.5775
49.2692
44.836
41.311
38.7108
37.0398
36.2946
36.4677
37.5493
39.5276
42.3879
46.1099
50.6642
56.0082
62.0831
68.8105
76.0919
83.8093
91.8277
100
100
91.5294
83.2231
75.2386
67.7196
60.7917
54.5587
49.1023
44.4823
40.7397
37.9003
35.9788
34.9831
34.9174
35.7839
37.5832
40.3126
43.9637
48.5173
53.9397
60.1773
67.153
74.7638
82.8803
91.3495
100
-300
-300
-300
-300
-300
-300
-300
-300
-300
-300
-300
-300
-300
-300
-300
-300
-300
-300
-300
-300
-300
-300
-300
-300
100
91.3871
82.9587
74.8888
67.333
60.4221
54.2602
48.9241
44.4662
40.9181
38.2953
36.6021
35.836
35.9908
37.0587
39.03
41.892
45.6261
50.2042
55.5843
61.7073
68.4943
75.8453
83.6402
91.7418
100
100
91.5282
83.2205
75.2341
67.7126
60.7812
54.5435
49.0805
44.4519
40.6979
37.8441
35.9049
34.8879
34.7974
35.6362
37.406
40.1058
43.7296
48.2616
53.6719
59.9108
66.9049
74.5533
82.7265
91.2681
100
-300
-300
-300
-300
-300
-300
-300
-300
-300
-300
-300
-300
-300
-300
-300
-300
-300
-300
-300
-300
-300
-300
-300
-300
100
91.2955
82.7833
74.6435
67.0342
60.0861
53.9005
48.5509
44.086
40.5342
37.9089
36.2132
35.4445
35.5971
36.6645
38.6384
41.508
45.2559
49.8551
55.2645
61.4251
68.2575
75.6609
83.514
91.6776
100
100
91.5267
83.2174
75.2288
67.7042
60.7685
54.5248
49.0537
44.4142
40.6461
37.7741
35.8121
34.7676
34.6448
35.4469
37.1769
39.8359
43.4209
47.9206
53.3103
59.5463
66.5611
74.258
82.5085
91.1519
100
-300
-300
-300
-300
-300
-300
-300
-300
-300
-300
-300
-300
-300
-300
-300
-300
-300
-300
-300
-300
-300
-300
-300
-300
100
91.1714
82.5488
74.3219
66.6524
59.6697
53.4707
48.123
43.6697
40.1342
37.5266
35.8477
35.0937
35.2594
36.3385
38.3243
41.2071
44.9711
49.5903
55.0243
61.2146
68.0818
75.5246
83.4208
91.6303
100
100
91.525
83.2137
75.2224
67.6942
60.7533
54.5025
49.0215
44.3687
40.583
37.6884
35.698
34.6186
34.4543
35.2087
36.8858
39.4894
43.0201
47.472
52.8276
59.0521
66.0871
73.8442
82.1985
90.9849
100
-300
-300
-300
-300
-300
-300
-300
-300
-300
-300
-300
-300
-300
-300
-300
-300
-300
-300
-300
-300
-300
-300
-300
-300
100
90.9985
82.2266
73.8886
66.1504
59.1374
52.9383
47.6113
43.1909
39.694
37.1253
35.4828
34.7611
34.9544
36.0573
38.0639
40.9659
44.7487
49.3877
54.8434
61.0579
67.952
75.4244
83.3526
91.5958
100
100
91.5231
83.2095
75.2152
67.6827
60.7358
54.4764
48.9837
44.3149
40.5079
37.5857
35.5603
34.4377
34.2212
34.9146
36.5231
39.0525
42.5081
46.8903
52.191
58.3876
65.4362
73.2633
81.7542
90.7417
100
-300
-300
-300
-300
-300
-300
-300
-300
-300
-300
-300
-300
-300
-300
-300
-300
-300
-300
-300
-300
-300
-300
-300
-300
100
90.751
81.7734
73.2937
65.4795
58.4456
52.2661
46.9846
42.6236
39.1907
36.6845
35.0992
34.4276
34.6635
35.802
37.8382
40.7653
44.5703
49.2298
54.7056
60.9406
67.8561
75.3511
83.3029
91.5707
100
100
91.5211
83.205
75.2073
67.6699
60.7161
54.4468
48.9404
44.2528
40.4207
37.4656
35.3981
34.2227
33.942
34.5591
36.0799
38.5124
41.866
46.1484
51.3628
57.5027
64.546
72.4449
81.1088
90.3792
100
-300
-300
-300
-300
-300
-300
-300
-300
-300
-300
-300
-300
-300
-300
-300
-300
-300
-300
-300
-300
-300
-300
-300
-300
100
90.3854
81.1218
72.4653
64.575
57.5416
51.4129
46.2113
41.9428
38.6042
36.1871
34.6816
34.0788
34.3724
35.5581
37.6328
40.5911
44.4219
49.1034
54.5986
60.8517
67.7848
75.2973
83.2669
91.5526
100
100
91.519
83.2002
75.1989
67.6563
60.6947
54.4143
48.8922
44.183
40.3219
37.3285
35.2114
33.9733
33.6152
34.1391
35.5505
37.8589
41.077
45.22
50.3027
56.3384
63.3344
71.2852
80.1522
89.8179
100
-300
-300
-300
-300
-300
-300
-300
-300
-300
-300
-300
-300
-300
-300
-300
-300
-300
-300
-300
-300
-300
-300
-300
-300
100
89.822
80.1608
71.2987
63.3535
56.3639
50.3357
45.2612
41.1274
37.9189
35.6205
34.219
33.7045
34.071
35.3157
37.4375
40.4331
44.2934
48.9985
54.5133
60.7832
67.7312
75.2577
83.2406
91.5395
100
100
91.517
83.1957
75.1907
67.6425
60.6725
54.38
48.8405
44.1072
40.2132
37.176
35.002
33.6912
33.2421
33.6548
34.9333
37.087
40.1306
44.0842
48.9736
54.8312
61.6997
69.6341
78.6948
88.8942
100
-300
-300
-300
-300
-300
-300
-300
-300
-300
-300
-300
-300
-300
-300
-300
-300
-300
-300
-300
-300
-300
-300
-300
-300
100
88.8969
78.7004
69.6428
61.7121
54.8478
48.9949
44.1108
40.163
37.1256
34.9783
33.7062
33.2995
33.7539
35.069
37.2461
40.2846
44.178
48.9088
54.4436
60.7294
67.6906
75.2284
83.2217
91.5302
100
100
91.5154
83.1919
75.1834
67.6296
60.651
54.3455
48.7873
44.0276
40.0975
37.0117
34.7738
33.3807
32.8276
33.1113
34.233
36.2
39.026
42.7328
47.3512
52.927
59.5319
67.2872
76.4051
87.2249
100
-300
-300
-300
-300
-300
-300
-300
-300
-300
-300
-300
-300
-300
-300
-300
-300
-300
-300
-300
-300
-300
-300
-300
-300
100
87.2266
76.4086
67.2928
59.5398
52.9375
47.3647
42.7497
39.0466
36.2245
34.2616
33.1439
32.864
33.4204
34.8162
37.056
40.1427
44.0725
48.8305
54.3858
60.687
67.6601
75.2073
83.2084
91.5238
100
100
91.5146
83.1897
75.1783
67.6194
60.6322
54.3135
48.7358
43.9482
39.9793
36.841
34.5333
33.0497
32.3808
32.5194
33.4621
35.2116
37.7776
41.1778
45.4396
50.6067
56.7531
64.0222
72.7382
83.7773
100
100
100
100
100
100
100
100
100
100
100
100
100
100
100
100
100
100
100
100
100
100
100
100
100
100
83.7784
72.7404
64.0257
56.758
50.6133
45.4481
41.1883
37.7905
35.2269
33.4799
32.5397
32.4035
33.0744
34.5598
36.8686
40.0074
43.9761
48.7627
54.3386
60.6547
67.6384
75.1932
83.2
91.5198
100
100
91.5152
83.1902
75.1772
67.6141
60.6192
54.2877
48.6903
43.8741
39.8648
36.6713
34.2897
32.709
31.9154
31.8958
32.6411
34.1475
36.4171
39.4583
43.286
47.9231
53.404
59.7792
67.1088
75.3627
83.7772
87.2246
88.8938
89.8172
90.378
90.7398
90.9819
91.1472
91.2607
91.338
91.389
91.4199
91.4345
91.4345
91.4199
91.389
91.338
91.2607
91.1472
90.9819
90.7398
90.378
89.8172
88.8938
87.2247
83.7775
75.3634
67.1102
59.7814
53.407
47.9272
43.2912
39.4648
36.425
34.1569
32.6521
31.9083
31.9293
32.7242
34.3059
36.6882
39.8821
43.8912
48.7069
54.3031
60.6329
67.6257
75.1863
83.1965
91.5184
100
100
91.518
83.195
75.1823
67.6169
60.6159
54.2729
48.6569
43.8124
39.7625
36.5126
34.0549
32.3735
31.4493
31.263
31.7987
33.0443
34.9926
37.6395
40.9826
45.0176
49.7315
55.0864
60.9761
67.1087
72.7379
76.4046
78.694
80.1509
81.1066
81.7506
82.1927
82.4994
82.7122
82.8582
82.9548
83.0137
83.0415
83.0415
83.0137
82.9548
82.8582
82.7122
82.4994
82.1927
81.7506
81.1066
80.1509
78.6941
76.4047
72.7382
67.1092
60.977
55.0878
49.7334
45.0201
40.9858
37.6434
34.9974
33.05
31.8053
31.2706
31.4577
32.3827
34.0647
36.5228
39.773
43.8227
48.6668
54.2822
60.6242
67.624
75.1879
83.1988
91.52
100
100
91.5241
83.2063
75.1971
67.6323
60.6279
54.2759
48.6432
43.7723
39.6831
36.3777
33.8439
32.0612
31.0046
30.6486
30.9695
31.947
33.5635
35.8025
38.6447
42.0627
46.01
50.4029
55.0863
59.779
64.0218
67.2865
69.6329
71.2833
72.4417
73.2582
73.836
74.245
74.533
74.7325
74.8655
74.9468
74.9854
74.9854
74.9468
74.8655
74.7325
74.533
74.245
73.836
73.2582
72.4417
71.2833
69.633
67.2866
64.022
59.7793
55.0869
50.4038
46.0112
42.0642
38.6466
35.8048
33.5664
31.9504
30.9734
30.653
31.0096
32.0667
33.8497
36.3837
39.6893
43.7784
48.6492
54.2814
60.6328
67.6365
75.2004
83.2086
91.5253
100
100
91.5349
83.2271
75.2259
67.6661
60.6624
54.3052
48.6595
43.7654
39.6402
36.2821
33.675
31.7936
30.6072
30.0838
30.1926
30.9049
32.1938
34.0316
36.3863
39.2152
42.4553
46.01
49.7314
53.4037
56.7526
59.531
61.6983
63.3321
64.5422
65.43
66.077
66.5451
66.8799
67.1145
67.2723
67.3693
67.4154
67.4154
67.3693
67.2723
67.1145
66.8799
66.5451
66.077
65.43
64.5422
63.3321
61.6983
59.5311
56.7527
53.4039
49.7317
46.0105
42.4559
39.216
36.3874
34.033
32.1954
30.9069
30.1949
30.0864
30.6101
31.7968
33.6785
36.2856
39.6438
43.7691
48.663
54.3084
60.6653
67.6686
75.2278
83.2284
91.5356
100
100
91.5525
83.2611
75.2744
67.7258
60.7287
54.3719
48.7187
43.8067
39.6504
36.2447
33.5698
31.5955
30.2858
29.6029
29.5091
29.9685
30.946
32.4057
34.3069
36.5992
39.2151
42.0626
45.0175
47.9228
50.6062
52.926
54.8296
56.3357
57.4983
58.3804
59.0406
59.5283
59.8826
60.1339
60.3044
60.4098
60.4602
60.4602
60.4098
60.3044
60.1339
59.8826
59.5283
59.0406
58.3804
57.4983
56.3357
54.8296
52.9261
50.6062
47.9229
45.0177
42.0629
39.2155
36.5997
34.3076
32.4065
30.947
29.9696
29.5104
29.6044
30.2875
31.5973
33.5718
36.2468
39.6525
43.8088
48.7207
54.3738
60.7304
67.7272
75.2755
83.2619
91.5529
100
100
91.5792
83.3134
75.35
67.8212
60.8388
54.4903
48.837
43.9143
39.7341
36.2884
33.5536
31.4952
30.0726
29.2425
28.9615
29.1873
29.8789
30.9942
32.4879
34.3069
36.3863
38.6446
40.9824
43.2856
45.439
47.3502
48.9719
50.2999
51.3581
52.1834
52.8154
53.2911
53.642
53.8937
54.0661
54.1733
54.2247
54.2247
54.1733
54.0661
53.8937
53.642
53.2911
52.8154
52.1834
51.3581
50.2999
48.9719
47.3502
45.4391
43.2857
40.9825
38.6448
36.3865
34.3072
32.4882
30.9946
29.8794
29.188
28.9622
29.2434
30.0736
31.4963
33.5547
36.2896
39.7353
43.9155
48.8381
54.4914
60.8398
67.822
75.3506
83.3139
91.5794
100
100
91.6183
83.3903
75.462
67.9644
61.0077
54.6779
49.0343
44.1106
39.9162
36.4402
33.6558
31.525
30.0028
29.0415
28.5928
28.6096
29.0462
29.8569
30.9942
32.4057
34.0315
35.8024
37.6393
39.4579
41.1772
42.7317
44.0825
45.2171
46.1436
46.8826
47.4597
47.9012
48.2314
48.471
48.6364
48.74
48.7897
48.7897