# vtk DataFile Version 2.0
LBE two cylinders
ASCII
DATASET STRUCTURED_POINTS
DIMENSIONS 76 76 1
ASPECT_RATIO 1 1 1
ORIGIN 0 0 0
POINT_DATA 5776
SCALARS temp double 1
LOOKUP_TABLE default
100
100
100
100
100
100
100
100
100
100
100
100
100
100
100
100
100
100
100
100
100
100
100
100
100
100
-300
-300
-300
-300
-300
-300
-300
-300
-300
-300
-300
-300
-300
-300
100
100
100
100
100
100
100
100
100
100
100
100
100
100
100
100
100
100
100
100
100
100
100
100
100
100
-300
-300
-300
-300
-300
-300
-300
-300
-300
-300
100
98.6923
97.4187
96.2108
95.0953
94.093
93.2177
92.4764
91.8704
91.3966
91.0492
90.8221
90.71
90.71
90.8221
91.0492
91.3966
91.8704
92.4764
93.2177
94.093
95.0953
96.2108
97.4187
98.6923
100
-300
-300
-300
-300
-300
-300
-300
-300
-300
-300
-300
-300
-300
-300
100
98.6932
97.4203
96.2131
95.0982
94.0964
93.2214
92.4804
91.8744
91.4005
91.0529
90.8255
90.7131
90.7127
90.8244
91.0511
91.3981
91.8716
92.4774
93.2184
94.0935
95.0956
96.211
97.4189
98.6924
100
-300
-300
-300
-300
-300
-300
-300
-300
-300
-300
100
97.4184
94.904
92.5191
90.3168
88.3381
86.61
85.1466
83.9503
83.0148
82.329
81.8806
81.6593
81.6593
81.8806
82.329
83.0148
83.9503
85.1466
86.61
88.3381
90.3168
92.5191
94.904
97.4184
100
-300
-300
-300
-300
-300
-300
-300
-300
-300
-300
-300
-300
-300
-300
100
97.4203
94.9078
92.5246
90.3237
88.3461
86.6189
85.156
83.9597
83.024
82.3378
81.8888
81.6666
81.6657
81.8861
82.3335
83.0184
83.9531
85.1488
86.6116
88.3392
90.3176
92.5196
94.9043
97.4185
100
-300
-300
-300
-300
-300
-300
-300
-300
-300
-300
100
96.2091
92.517
89.0151
85.7813
82.8757
80.3383
78.1895
76.4328
75.0591
74.0522
73.3938
73.0689
73.0689
73.3938
74.0522
75.0591
76.4328
78.1895
80.3383
82.8757
85.7813
89.0151
92.517
96.2091
100
-300
-300
-300
-300
-300
-300
-300
-300
-300
-300
-300
-300
-300
-300
100
96.2129
92.5243
89.0256
85.7946
82.8912
80.3554
78.2075
76.451
75.077
74.0692
73.4095
73.083
73.0812
73.4043
74.0609
75.0661
76.4383
78.1937
80.3414
82.8779
85.7828
89.016
92.5176
96.2094
100
-300
-300
-300
-300
-300
-300
-300
-300
-300
-300
100
95.0909
90.3096
85.7746
81.587
77.8243
74.5384
71.7558
69.4809
67.7021
66.3982
65.5456
65.1248
65.1248
65.5456
66.3982
67.7021
69.4809
71.7558
74.5384
77.8243
81.587
85.7746
90.3096
95.0909
100
-300
-300
-300
-300
-300
-300
-300
-300
-300
-300
-300
-300
-300
-300
100
95.0977
90.3229
85.7938
81.6112
77.8525
74.5695
71.7885
69.5141
67.7346
66.4291
65.5742
65.1505
65.1473
65.5647
66.414
67.7149
69.4909
71.7633
74.544
77.8282
81.5896
85.7764
90.3106
95.0913
100
-300
-300
-300
-300
-300
-300
-300
-300
-300
-300
100
94.0832
88.3206
82.8549
77.8077
73.2728
69.3125
65.9589
63.2172
61.0733
59.5018
58.4743
57.9672
57.9672
58.4743
59.5018
61.0733
63.2172
65.9589
69.3125
73.2728
77.8077
82.8549
88.3206
94.0832
100
-300
-300
-300
-300
-300
-300
-300
-300
-300
-300
-300
-300
-300
-300
100
94.0952
88.344
82.8886
77.8503
73.3224
69.3672
66.0164
63.2755
61.1305
59.5563
58.5246
58.0124
58.0068
58.508
59.5297
61.0958
63.2347
65.9721
69.3223
73.2796
77.8123
82.8578
88.3223
94.084
100
-300
-300
-300
-300
-300
-300
-300
-300
-300
-300
100
93.1986
86.5744
80.2914
74.4897
69.2768
64.7245
60.8695
57.718
55.2537
53.4473
52.2663
51.6834
51.6834
52.2663
53.4473
55.2537
57.718
60.8695
64.7245
69.2768
74.4897
80.2914
86.5744
93.1986
100
-300
-300
-300
-300
-300
-300
-300
-300
-300
-300
-300
-300
-300
-300
100
93.2191
86.6144
80.3493
74.5627
69.362
64.8183
60.9683
57.8182
55.3521
53.5409
52.3528
51.7611
51.7514
52.3241
53.4952
55.2922
57.748
60.8922
64.7411
69.2884
74.4975
80.2964
86.5772
93.1999
100
-300
-300
-300
-300
-300
-300
-300
-300
-300
-300
100
92.4417
85.0803
78.0983
71.6509
65.858
60.7993
56.5154
53.0134
50.275
48.2677
46.9553
46.3076
46.3076
46.9553
48.2677
50.275
53.0134
56.5154
60.7993
65.858
71.6509
78.0983
85.0803
92.4417
100
-300
-300
-300
-300
-300
-300
-300
-300
-300
-300
-300
-300
-300
-300
100
92.4761
85.1475
78.1953
71.7736
66.0011
60.9569
56.6815
53.1819
50.4403
48.4251
47.1008
46.4384
46.4219
47.0525
48.3481
50.3395
53.0636
56.5533
60.8268
65.8773
71.6638
78.1064
85.085
92.4438
100
-300
-300
-300
-300
-300
-300
-300
-300
-300
-300
100
91.8107
83.8347
76.2697
69.2841
63.0076
57.5267
52.8853
49.091
46.1241
43.9493
42.5274
41.8257
41.8257
42.5274
43.9493
46.1241
49.091
52.8853
57.5267
63.0076
69.2841
76.2697
83.8347
91.8107
100
-300
-300
-300
-300
-300
-300
-300
-300
-300
-300
-300
-300
-300
-300
100
91.8671
83.945
76.429
69.4855
63.2426
57.7857
53.1583
49.3681
46.3962
44.2083
42.7669
42.0409
42.0138
42.6873
44.0813
46.2299
49.1732
52.947
57.5714
63.0387
69.3048
76.2826
83.842
91.814
100
-300
-300
-300
-300
-300
-300
-300
-300
-300
-300
100
91.2978
82.8224
74.7837
67.3608
60.6913
54.8673
49.9354
45.9036
42.7511
40.4403
38.9295
38.1838
38.1838
38.9295
40.4403
42.7511
45.9036
49.9354
54.8673
60.6913
67.3608
74.7837
82.8224
91.2978
100
-300
-300
-300
-300
-300
-300
-300
-300
-300
-300
-300
-300
-300
-300
100
91.3884
82.9996
75.0397
67.6845
61.0692
55.284
50.3748
46.3499
43.1893
40.8575
39.3152
38.5305
38.4867
39.1866
40.6524
42.9208
46.0351
50.0338
54.9382
60.7404
67.393
74.8037
82.8336
91.3028
100
-300
-300
-300
-300
-300
-300
-300
-300
-300
-300
100
90.8916
82.0205
73.6066
65.8372
58.8566
52.7608
47.5988
43.379
40.0795
37.6609
36.0797
35.2993
35.2993
36.0797
37.6609
40.0795
43.379
47.5988
52.7608
58.8566
65.8372
73.6066
82.0205
90.8916
100
-300
-300
-300
-300
-300
-300
-300
-300
-300
-300
-300
-300
-300
-300
100
91.034
82.2991
74.0092
66.3466
59.4514
53.417
48.2911
44.0824
40.7705
38.319
36.6881
35.8459
35.7765
36.4846
37.9944
40.3458
43.5848
47.7522
52.8707
58.9319
65.8862
73.6365
82.0371
90.8989
100
-300
-300
-300
-300
-300
-300
-300
-300
-300
-300
100
90.5779
81.4013
72.6977
64.6608
57.4398
51.1342
45.7946
41.4296
38.0166
35.5148
33.8792
33.072
33.072
33.8792
35.5148
38.0166
41.4296
45.7946
51.1342
57.4398
64.6608
72.6977
81.4013
90.5779
100
-300
-300
-300
-300
-300
-300
-300
-300
-300
-300
-300
-300
-300
-300
100
90.797
81.8299
73.3173
65.445
58.3561
52.1457
46.8624
42.515
39.0833
36.531
34.8187
33.9157
33.8082
34.503
36.0278
38.4252
41.7442
46.0279
51.3002
57.5524
64.7331
72.741
81.4249
90.5881
100
-300
-300
-300
-300
-300
-300
-300
-300
-300
-300
100
90.3417
80.9351
72.0133
63.775
56.3731
49.9095
44.4362
39.9619
36.4635
33.8991
32.2226
31.3951
31.3951
32.2226
33.8991
36.4635
39.9619
44.4362
49.9095
56.3731
63.775
72.0133
80.9351
90.3417
100
-300
-300
-300
-300
-300
-300
-300
-300
-300
-300
-300
-300
-300
-300
100
90.6716
81.5806
72.9468
64.9572
57.7552
51.4362
46.0489
41.6021
38.0761
35.4356
33.643
32.6703
32.5068
33.1633
34.671
37.0766
40.432
44.7828
50.1541
56.537
63.8784
72.0739
80.9672
90.3552
100
-300
-300
-300
-300
-300
-300
-300
-300
-300
-300
100
90.1683
80.5928
71.5108
63.1246
55.5899
49.0103
43.4389
38.8844
35.3232
32.713
31.0064
30.1641
30.1641
31.0064
32.713
35.3232
38.8844
43.4389
49.0103
55.5899
63.1246
71.5108
80.5928
90.1683
100
-300
-300
-300
-300
-300
-300
-300
-300
-300
-300
-300
-300
-300
-300
100
90.6544
81.5444
72.8876
64.8693
57.631
51.2668
45.8242
41.3119
37.7111
34.9884
33.1097
32.0512
31.8075
32.3947
33.8495
36.2229
39.5709
43.9416
49.3614
55.8217
63.2677
71.5921
80.6341
90.185
100
-300
-300
-300
-300
-300
-300
-300
-300
-300
-300
100
90.0441
80.3476
71.151
62.6589
55.0291
48.3665
42.7247
38.1128
34.5068
31.8636
30.1355
29.2827
29.2827
30.1355
31.8636
34.5068
38.1128
42.7247
48.3665
55.0291
62.6589
71.151
80.3476
90.0441
100
-300
-300
-300
-300
-300
-300
-300
-300
-300
-300
-300
-300
-300
-300
100
90.7455
81.721
73.1391
65.18
57.981
51.6327
46.1806
41.6326
37.9708
35.1651
33.1865
32.0179
31.6614
32.1411
33.5008
35.7976
39.0923
43.436
48.857
55.3468
62.8493
71.2545
80.3971
90.0628
100
-300
-300
-300
-300
-300
-300
-300
-300
-300
-300
100
89.9573
80.1764
70.8996
62.3336
54.6373
47.9168
42.2259
37.5739
33.9366
31.2704
29.5273
28.6671
28.6671
29.5273
31.2704
33.9366
37.5739
42.2259
47.9168
54.6373
62.3336
70.8996
80.1764
89.9573
100
-300
-300
-300
-300
-300
-300
-300
-300
-300
-300
-300
-300
-300
-300
100
90.9482
82.1172
73.7109
65.9014
58.819
52.5487
47.1319
42.5751
38.8614
35.965
33.864
32.551
32.0392
32.3635
33.5777
35.7472
38.9386
43.2071
48.5831
55.0584
62.5759
71.0226
80.2291
89.9746
100
-300
-300
-300
-300
-300
-300
-300
-300
-300
-300
100
89.8982
80.0597
70.7283
62.1119
54.3704
47.6103
41.886
37.2067
33.548
30.8662
29.1129
28.2476
28.2476
29.1129
30.8662
33.548
37.2067
41.886
47.6103
54.3704
62.1119
70.7283
80.0597
89.8982
100
-300
-300
-300
-300
-300
-300
-300
-300
-300
-300
-300
-300
-300
-300
100
91.2688
82.7456
74.6218
67.0579
60.1743
54.0474
48.7127
44.1734
40.4133
37.4114
35.1557
33.6524
32.9302
33.0395
34.0477
36.0308
39.063
43.2046
48.4885
54.9073
62.4031
70.8601
80.1039
89.9067
100
-300
-300
-300
-300
-300
-300
-300
-300
-300
-300
100
89.8589
79.9821
70.6144
61.9645
54.1928
47.4065
41.66
36.9625
33.2896
30.5974
28.8373
27.9686
27.9686
28.8373
30.5974
33.2896
36.9625
41.66
47.4065
54.1928
61.9645
70.6144
79.9821
89.8589
100
-300
-300
-300
-300
-300
-300
-300
-300
-300
-300
-300
-300
-300
-300
100
91.7158
83.6229
75.8967
68.6826
62.0876
56.1764
50.9754
46.4819
42.6786
39.5499
37.096
35.3423
34.3397
34.1603
34.8895
36.6171
39.4268
43.3847
48.5269
54.8475
62.288
70.7304
79.9948
89.8449
100
-300
-300
-300
-300
-300
-300
-300
-300
-300
-300
100
89.8334
79.9317
70.5404
61.8688
54.0776
47.2742
41.5133
36.804
33.1219
30.423
28.6584
27.7876
27.7876
28.6584
30.423
33.1219
36.804
41.5133
47.2742
54.0776
61.8688
70.5404
79.9317
89.8334
100
-300
-300
-300
-300
-300
-300
-300
-300
-300
-300
-300
-300
-300
-300
100
92.2978
84.7668
77.5625
70.8121
64.6055
58.9922
53.9851
49.5713
45.7284
42.4445
39.7358
37.6543
36.2831
35.7243
36.0874
37.4793
39.9946
43.7058
48.6529
54.832
62.1853
70.5933
79.8714
89.7727
100
-300
-300
-300
-300
-300
-300
-300
-300
-300
-300
100
89.8172
79.8998
70.4936
61.8081
54.0046
47.1904
41.4203
36.7036
33.0156
30.3124
28.5451
27.6729
27.6729
28.5451
30.3124
33.0156
36.7036
41.4203
47.1904
54.0046
61.8081
70.4936
79.8998
89.8172
100
-300
-300
-300
-300
-300
-300
-300
-300
-300
-300
-300
-300
-300
-300
100
93.0219
86.1916
79.6422
73.4794
67.7729
62.5526
57.813
53.5235
49.6491
46.1758
43.1381
40.6282
38.7771
37.729
37.6241
38.5889
40.7296
44.1248
48.8183
54.8094
62.043
70.401
79.6957
89.6687
100
-300
-300
-300
-300
-300
-300
-300
-300
-300
-300
100
89.8072
79.88
70.4646
61.7706
53.9594
47.1385
41.3628
36.6415
32.9499
30.2441
28.475
27.602
27.602
28.475
30.2441
32.9499
36.6415
41.3628
47.1385
53.9594
61.7706
70.4646
79.88
89.8072
100
-300
-300
-300
-300
-300
-300
-300
-300
-300
-300
-300
-300
-300
-300
100
93.891
87.9044
82.1485
76.7057
71.6229
66.9076
62.5289
58.4285
54.5427
50.841
47.3747
44.3022
41.8298
40.1605
39.4713
39.9088
41.588
44.5922
48.9681
54.7192
61.7971
70.0908
79.4152
89.5022
100
-300
-300
-300
-300
-300
-300
-300
-300
-300
-300
100
89.8011
79.8681
70.4471
61.7479
53.9321
47.1072
41.3281
36.6039
32.9102
30.2028
28.4327
27.5591
27.5591
28.4327
30.2028
32.9102
36.6039
41.3281
47.1072
53.9321
61.7479
70.4471
79.8681
89.8011
100
-300
-300
-300
-300
-300
-300
-300
-300
-300
-300
-300
-300
-300
-300
100
94.902
89.8999
85.0767
80.491
76.167
72.0879
68.1928
64.3814
60.5341
56.565
52.5246
48.7004
45.425
42.98
41.5803
41.3861
42.5152
45.05
49.0381
54.4891
61.3665
69.5769
78.952
89.2239
100
-300
-300
-300
-300
-300
-300
-300
-300
-300
-300
100
89.7976
79.8611
70.4367
61.7346
53.916
47.0887
41.3076
36.5818
32.8868
30.1784
28.4077
27.5338
27.5338
28.4077
30.1784
32.8868
36.5818
41.3076
47.0887
53.916
61.7346
70.4367
79.861
89.7976
100
-300
-300
-300
-300
-300
-300
-300
-300
-300
-300
-300
-300
-300
-300
100
96.0436
92.1569
88.3985
84.8051
81.3815
78.0905
74.8416
71.4809
67.7907
63.5373
58.6759
53.8128
49.4999
46.1075
43.8716
42.9479
43.4435
45.4315
48.9567
54.0347
60.6484
68.7385
78.1825
88.7464
100
-300
-300
-300
-300
-300
-300
-300
-300
-300
-300
100
89.7955
79.857
70.4308
61.7268
53.9067
47.0781
41.2957
36.569
32.8733
30.1643
28.3933
27.5192
27.5192
28.3933
30.1643
32.8732
36.569
41.2957
47.0781
53.9067
61.7268
70.4308
79.857
89.7955
100
-300
-300
-300
-300
-300
-300
-300
-300
-300
-300
-300
-300
-300
-300
100
97.2951
94.6351
92.0563
89.5782
87.1939
84.8574
82.4645
79.8171
76.5625
72.127
65.9156
59.5465
53.907
49.4012
46.2274
44.5001
44.2955
45.6669
48.65
53.265
59.5189
67.4066
76.9009
87.8951
100
-300
-300
-300
-300
-300
-300
-300
-300
-300
-300
100
89.7944
79.8547
70.4274
61.7225
53.9015
47.0721
41.2891
36.5618
32.8656
30.1564
28.3852
27.511
27.511
28.3852
30.1564
32.8656
36.5618
41.2891
47.072
53.9015
61.7225
70.4274
79.8547
89.7944
100
-300
-300
-300
-300
-300
-300
-300
-300
-300
-300
-300
-300
-300
-300
100
98.6265
97.2747
95.962
94.6959
93.4684
92.2462
90.9511
89.4103
87.2159
83.2743
74.2247
65.6012
58.3558
52.6414
48.4922
45.9337
44.9925
45.693
48.0555
52.0982
57.8472
65.3583
74.7565
86.2693
100
-300
-300
-300
-300
-300
-300
-300
-300
-300
-300
100
89.7937
79.8534
70.4256
61.7201
53.8986
47.0688
41.2854
36.5578
32.8614
30.1521
28.3807
27.5065
27.5065
28.3807
30.152
32.8614
36.5578
41.2854
47.0687
53.8986
61.7201
70.4256
79.8534
89.7937
100
-300
-300
-300
-300
-300
-300
-300
-300
-300
-300
-300
-300
-300
-300
100
100
100
100
100
100
100
100
100
100
100
82.8038
71.1871
62.3603
55.542
50.4938
47.1425
45.4685
45.4681
47.1415
50.4922
55.5399
62.3577
71.1842
82.8014
100
100
100
100
100
100
100
100
100
100
100
100
89.7934
79.8528
70.4246
61.7188
53.897
47.067
41.2834
36.5557
32.8592
30.1497
28.3783
27.504
27.504
28.3782
30.1497
32.8591
36.5557
41.2834
47.0669
53.897
61.7187
70.4245
79.8527
89.7934
100
-300
-300
-300
-300
-300
-300
-300
-300
-300
-300
-300
-300
-300
-300
-300
-300
-300
-300
-300
-300
-300
-300
-300
-300
100
86.2692
74.7558
65.3567
57.8446
52.0945
48.0508
45.6875
44.9862
45.9267
48.4847
52.6334
58.3476
65.5929
74.2168
83.2673
87.2094
89.4042
90.9454
92.2411
93.4639
94.6922
95.9592
97.2728
98.6255
100
100
89.7932
79.8524
70.4241
61.7181
53.8962
47.066
41.2824
36.5546
32.858
30.1485
28.377
27.5027
27.5027
28.3769
30.1484
32.8579
36.5545
41.2823
47.0659
53.8961
61.718
70.4239
79.8523
89.7932
100
-300
-300
-300
-300
-300
-300
-300
-300
-300
-300
-300
-300
-300
-300
-300
-300
-300
-300
-300
-300
-300
-300
-300
-300
100
87.8931
76.8968
67.4004
59.5106
53.2547
48.638
45.6535
44.2809
44.4845
46.211
49.3843
53.8898
59.5294
65.8988
72.1109
76.5472
79.8026
82.4511
84.8454
87.1834
89.5695
92.0496
94.6305
97.2928
100
100
89.7931
79.8522
70.4238
61.7178
53.8958
47.0655
41.2819
36.554
32.8574
30.1478
28.3763
27.502
27.502
28.3762
30.1477
32.8572
36.5538
41.2816
47.0653
53.8955
61.7175
70.4236
79.8521
89.793
100
-300
-300
-300
-300
-300
-300
-300
-300
-300
-300
-300
-300
-300
-300
-300
-300
-300
-300
-300
-300
-300
-300
-300
-300
100
88.742
78.1737
68.7256
60.6316
54.0144
48.9333
45.4056
43.4154
42.9182
43.8407
46.0758
49.4678
53.7808
58.6443
63.5066
67.7613
71.4531
74.8158
78.0673
81.3613
84.7883
88.3855
92.1481
96.0391
100
100
89.7931
79.8521
70.4236
61.7176
53.8956
47.0653
41.2816
36.5537
32.857
30.1474
28.3759
27.5016
27.5016
28.3757
30.1472
32.8567
36.5532
41.2811
47.0647
53.895
61.7171
70.4232
79.8518
89.7929
100
-300
-300
-300
-300
-300
-300
-300
-300
-300
-300
-300
-300
-300
-300
-300
-300
-300
-300
-300
-300
-300
-300
-300
-300
100
89.2157
78.9358
69.5531
61.3357
54.4521
48.9957
45.003
42.4645
41.3325
41.5246
42.923
45.3674
48.6428
52.4678
56.5096
60.4809
64.3311
68.1463
72.046
76.1305
80.4607
85.0533
89.884
94.8939
100
100
89.793
79.8521
70.4236
61.7175
53.8955
47.0652
41.2814
36.5535
32.8568
30.1472
28.3756
27.5013
27.5012
28.3753
30.1467
32.8561
36.5526
41.2804
47.0641
53.8945
61.7166
70.4228
79.8515
89.7927
100
-300
-300
-300
-300
-300
-300
-300
-300
-300
-300
-300
-300
-300
-300
-300
-300
-300
-300
-300
-300
-300
-300
-300
-300
100
89.4878
79.3867
70.049
61.7431
54.6542
48.8937
44.5099
41.4992
39.8149
39.3739
40.0607
41.729
44.2014
47.2752
50.7441
54.4496
58.3405
62.4475
66.8342
71.559
76.6526
82.1075
87.8764
93.8768
100
100
89.793
79.8521
70.4235
61.7175
53.8954
47.0651
41.2813
36.5534
32.8566
30.147
28.3754
27.5009
27.5008
28.3748
30.146
32.8554
36.5518
41.2795
47.0632
53.8935
61.7157
70.4221
79.851
89.7925
100
-300
-300
-300
-300
-300
-300
-300
-300
-300
-300
-300
-300
-300
-300
-300
-300
-300
-300
-300
-300
-300
-300
-300
-300
100
89.644
79.6469
70.3295
61.9506
54.6983
48.6911
43.984
40.5778
38.4286
37.4576
37.5586
38.6049
40.4562
42.9683
46.0104
49.4901
53.3733
57.6739
62.4273
67.6637
73.3888
79.5722
86.1439
92.9977
100
100
89.793
79.852
70.4235
61.7174
53.8954
47.065
41.2812
36.5532
32.8564
30.1467
28.375
27.5004
27.5001
28.3739
30.145
32.8541
36.5503
41.2779
47.0615
53.8919
61.7142
70.4208
79.8501
89.792
100
-300
-300
-300
-300
-300
-300
-300
-300
-300
-300
-300
-300
-300
-300
-300
-300
-300
-300
-300
-300
-300
-300
-300
-300
100
89.7313
79.7898
70.4737
62.0308
54.6463
48.4402
43.4705
39.7409
37.2115
35.8094
35.4397
35.9955
37.3671
39.4523
42.1683
45.4629
49.3205
53.753
58.783
64.4233
70.6608
77.4455
84.6871
92.2575
100
100
89.793
79.852
70.4235
61.7174
53.8953
47.0649
41.2811
36.553
32.8561
30.1463
28.3744
27.4996
27.499
28.3725
30.1432
32.852
36.5479
41.2752
47.0587
53.8891
61.7116
70.4187
79.8485
89.7912
100
-300
-300
-300
-300
-300
-300
-300
-300
-300
-300
-300
-300
-300
-300
-300
-300
-300
-300
-300
-300
-300
-300
-300
-300
100
89.7771
79.8612
70.5346
62.0352
54.5438
48.1791
42.9999
39.0122
36.1794
34.4353
33.6955
33.8701
34.8733
36.6331
39.0987
42.2452
46.0724
50.5965
55.8348
61.79
68.4355
75.7058
83.4929
91.6499
100
100
89.793
79.852
70.4235
61.7173
53.8952
47.0648
41.2809
36.5527
32.8557
30.1456
28.3734
27.4982
27.4971
28.3701
30.1402
32.8484
36.5437
41.2706
47.0538
53.8843
61.7072
70.4149
79.8458
89.7898
100
-300
-300
-300
-300
-300
-300
-300
-300
-300
-300
-300
-300
-300
-300
-300
-300
-300
-300
-300
-300
-300
-300
-300
-300
100
89.7982
79.89
70.5467
61.9984
54.4213
47.932
42.5892
38.4001
35.3312
33.3217
32.2968
32.1797
32.903
34.4162
36.6908
39.721
43.5194
48.1075
53.5019
59.6991
66.6633
74.3169
82.5379
91.1636
100
100
89.793
79.852
70.4234
61.7173
53.8951
47.0646
41.2805
36.5522
32.8549
30.1444
28.3717
27.496
27.4941
28.3662
30.1353
32.8424
36.5368
41.263
47.0457
53.8762
61.6997
70.4086
79.8413
89.7874
100
-300
-300
-300
-300
-300
-300
-300
-300
-300
-300
-300
-300
-300
-300
-300
-300
-300
-300
-300
-300
-300
-300
-300
-300
100
89.8046
79.8939
70.5317
61.942
54.2972
47.712
42.2441
37.9015
34.6531
32.4426
31.2023
30.8662
31.3799
32.7084
34.839
37.7797
41.5533
46.1865
51.6965
58.0768
65.2851
73.2347
81.7928
90.7838
100
100
89.793
79.8519
70.4234
61.7171
53.8949
47.0642
41.28
36.5514
32.8537
30.1426
28.3692
27.4924
27.4892
28.3598
30.1273
32.8327
36.5255
41.2504
47.0324
53.8629
61.6873
70.3982
79.8337
89.7834
100
-300
-300
-300
-300
-300
-300
-300
-300
-300
-300
-300
-300
-300
-300
-300
-300
-300
-300
-300
-300
-300
-300
-300
-300
100
89.802
79.8831
70.5017
61.8777
54.1806
47.5229
41.9617
37.505
34.1235
31.7644
30.3654
29.868
30.2275
31.4201
33.4441
36.3176
40.0711
44.7359
50.3305
56.8468
64.2382
72.4115
81.2253
90.4944
100
100
89.7929
79.8519
70.4233
61.717
53.8946
47.0637
41.2792
36.5501
32.8518
30.1398
28.3651
27.4867
27.4816
28.3498
30.1146
32.8173
36.5075
41.2302
47.0109
53.8413
61.6671
70.3811
79.8213
89.7768
100
-300
-300
-300
-300
-300
-300
-300
-300
-300
-300
-300
-300
-300
-300
-300
-300
-300
-300
-300
-300
-300
-300
-300
-300
100
89.7935
79.8626
70.4624
61.8102
54.073
47.3619
41.7329
37.194
33.717
31.2512
29.7382
29.125
29.3738
30.4684
32.4152
35.2396
38.9777
43.6645
49.3202
55.9357
63.4616
71.8001
80.8035
90.2791
100
100
89.7929
79.8518
70.4231
61.7167
53.8941
47.063
41.278
36.5483
32.8489
30.1355
28.359
27.4781
27.4699
28.3344
30.095
32.7932
36.4792
41.1983
46.9768
53.8069
61.6349
70.3537
79.8012
89.7662
100
-300
-300
-300
-300
-300
-300
-300
-300
-300
-300
-300
-300
-300
-300
-300
-300
-300
-300
-300
-300
-300
-300
-300
-300
100
89.7797
79.8333
70.4143
61.7383
53.9708
47.2213
41.545
36.9493
33.4064
30.8669
29.2751
28.5815
28.7532
29.7794
31.672
34.4616
38.1885
42.8908
48.5897
55.2763
62.8989
71.3566
80.4973
90.1228
100
100
89.7929
79.8517
70.4229
61.7163
53.8935
47.0619
41.2763
36.5455
32.8447
30.1292
28.3498
27.4652
27.4522
28.3111
30.0652
32.7565
36.4357
41.1491
46.9237
53.753
61.5841
70.3103
79.7695
89.7494
100
-300
-300
-300
-300
-300
-300
-300
-300
-300
-300
-300
-300
-300
-300
-300
-300
-300
-300
-300
-300
-300
-300
-300
-300
100
89.7596
79.7931
70.3537
61.6564
53.8657
47.0897
41.3824
36.7503
33.1651
30.5782
28.9349
28.1885
28.309
29.2893
31.1453
33.9114
37.6309
42.3441
48.0735
54.8098
62.5006
71.0425
80.2803
90.0119
100
100
89.7928
79.8515
70.4226
61.7158
53.8926
47.0604
41.2738
36.5415
32.8386
30.1201
28.3365
27.4464
27.4264
28.2767
30.021
32.7017
36.3703
41.0745
46.8428
53.6703
61.5056
70.2428
79.7198
89.723
100
-300
-300
-300
-300
-300
-300
-300
-300
-300
-300
-300
-300
-300
-300
-300
-300
-300
-300
-300
-300
-300
-300
-300
-300
100
89.7303
79.7364
70.2727
61.5546
53.7456
46.9527
41.2278
36.5761
32.968
30.3545
28.6816
27.9037
27.993
28.9449
30.7781
33.5295
37.2449
41.9661
47.7166
54.4873
62.2251
70.8251
80.1301
89.9352
100
100
89.7927
79.8513
70.4222
61.715
53.8913
47.0582
41.2703
36.536
32.83
30.1072
28.3177
27.4196
27.3894
28.2272
29.9569
32.6216
36.274
40.9637
46.7216
53.5453
61.3858
70.1391
79.6429
89.6821
100
-300
-300
-300
-300
-300
-300
-300
-300
-300
-300
-300
-300
-300
-300
-300
-300
-300
-300
-300
-300
-300
-300
-300
-300
100
89.687
79.6542
70.159
61.4181
53.5943
46.7925
41.0621
36.4056
32.7913
30.169
28.4844
27.6923
27.7663
28.7034
30.5245
33.2682
36.9822
41.7097
47.4749
54.2692
62.0388
70.6781
80.0285
89.8833
100
100
89.7926
79.851
70.4216
61.714
53.8895
47.0553
41.2655
36.5284
32.8183
30.0895
28.2917
27.3824
27.3377
28.1575
29.866
32.5071
36.1352
40.8024
46.5432
53.3593
61.2058
69.9817
79.5254
89.619
100
-300
-300
-300
-300
-300
-300
-300
-300
-300
-300
-300
-300
-300
-300
-300
-300
-300
-300
-300
-300
-300
-300
-300
-300
100
89.6223
79.5327
69.9946
61.2265
53.3904
46.5879
40.8641
36.2174
32.6129
29.998
28.3174
27.5258
27.5976
28.5311
30.3485
33.0904
36.8056
41.5385
47.3144
54.1245
61.9154
70.5809
79.9613
89.849
100
100
89.7924
79.8506
70.4209
61.7127
53.8873
47.0515
41.2593
36.5184
32.8027
30.0659
28.2567
27.332
27.2673
28.062
29.7403
32.3472
35.9393
40.5721
46.2854
53.0871
60.9388
69.7451
79.3468
89.5225
100
-300
-300
-300
-300
-300
-300
-300
-300
-300
-300
-300
-300
-300
-300
-300
-300
-300
-300
-300
-300
-300
-300
-300
-300
100
89.5246
79.3514
69.7533
60.9517
53.1063
46.3129
40.61
35.9895
32.4117
29.8206
28.1592
27.3817
27.4628
28.4022
30.2233
32.9681
36.6869
41.4253
47.2091
54.0303
61.8353
70.5179
79.9178
89.8268
100
100
89.7922
79.8501
70.4199
61.711
53.8844
47.0466
41.2512
36.5055
32.7825
30.035
28.2108
27.2657
27.1739
27.9341
29.5705
32.1291
35.6689
40.2503
45.9198
52.6947
60.5475
69.3926
79.0765
89.3748
100
-300
-300
-300
-300
-300
-300
-300
-300
-300
-300
-300
-300
-300
-300
-300
-300
-300
-300
-300
-300
-300
-300
-300
-300
100
89.3761
79.0794
69.3976
60.5554
52.7064
45.9364
40.273
35.699
32.1676
29.6184
27.992
27.2419
27.3435
28.2974
30.1287
32.8809
36.6058
41.3501
47.1405
53.9696
61.7841
70.4778
79.8902
89.8127
100
100
89.792
79.8496
70.4188
61.709
53.8808
47.0405
41.2412
36.4893
32.757
29.996
28.1524
27.1806
27.0532
27.7675
29.3473
31.8391
35.3048
39.8102
45.4112
52.1382
59.9805
68.8702
78.6673
89.1474
100
-300
-300
-300
-300
-300
-300
-300
-300
-300
-300
-300
-300
-300
-300
-300
-300
-300
-300
-300
-300
-300
-300
-300
-300
100
89.1482
78.669
68.8731
59.9851
52.1451
45.4209
39.8235
35.3223
31.8616
29.3752
27.8012
27.0928
27.2259
28.2028
30.0505
32.8143
36.5477
41.2988
47.0952
53.9305
61.7516
70.4525
79.8729
89.8039
100
100
89.7917
79.8489
70.4174
61.7065
53.8765
47.0332
41.229
36.4696
32.7258
29.9479
28.0801
27.0746
26.9016
27.5566
29.0617
31.4636
34.8265
39.2224
44.7182
51.3619
59.1677
68.0984
78.0438
88.7916
100
-300
-300
-300
-300
-300
-300
-300
-300
-300
-300
-300
-300
-300
-300
-300
-300
-300
-300
-300
-300
-300
-300
-300
-300
100
88.7921
78.0448
68.1001
59.1704
51.3659
44.7238
39.23
34.8365
31.4764
29.0776
27.5758
26.9242
27.1004
28.1088
29.979
32.7585
36.5029
41.2618
47.0644
53.9048
61.7309
70.4367
79.8622
89.7985
100
100
89.7913
79.8481
70.4159
61.7037
53.8715
47.0246
41.2147
36.4463
32.6888
29.8905
27.9932
26.9463
26.7169
27.2971
28.7068
30.9911
34.2157
38.4578
43.796
50.2997
58.0169
66.9602
77.081
88.2172
100
-300
-300
-300
-300
-300
-300
-300
-300
-300
-300
-300
-300
-300
-300
-300
-300
-300
-300
-300
-300
-300
-300
-300
-300
100
88.2174
77.0816
66.9612
58.0185
50.3019
43.7992
38.462
34.2213
30.9983
28.7157
27.3079
26.7295
26.9607
28.0092
29.9078
32.707
36.4649
41.233
47.0421
53.8874
61.7173
70.4267
79.8556
89.7952
100
100
89.791
79.8473
70.4143
61.7007
53.866
47.0151
41.1985
36.4197
32.6462
29.824
27.892
26.7958
26.4986
26.988
28.2794
30.415
33.4593
37.4924
42.6027
48.8803
56.4135
65.2857
75.5641
87.2383
100
-300
-300
-300
-300
-300
-300
-300
-300
-300
-300
-300
-300
-300
-300
-300
-300
-300
-300
-300
-300
-300
-300
-300
-300
100
87.2385
75.5644
65.2862
56.4143
48.8816
42.6044
37.4948
33.4624
30.419
28.2843
26.9938
26.5055
26.8037
27.9008
29.8335
32.6562
36.4298
41.2085
47.0246
53.8747
61.7081
70.4202
79.8514
89.7931
100
100
89.7908
79.8466
70.4128
61.6976
53.8603
47.0048
41.1809
36.3904
32.5989
29.7496
27.778
26.6251
26.249
26.6315
27.7819
29.7364
32.5549
36.3157
41.1106
47.0428
54.234
62.8446
73.118
85.4206
100
-300
-300
-300
-300
-300
-300
-300
-300
-300
-300
-300
-300
-300
-300
-300
-300
-300
-300
-300
-300
-300
-300
-300
-300
100
85.4207
73.1182
62.8449
54.2344
47.0435
41.1115
36.317
32.5566
29.7385
27.7845
26.6347
26.2527
26.6293
27.7826
29.7547
32.6042
36.3958
41.1862
47.0099
53.8649
61.7016
70.4159
79.8488
89.7919
100
100
89.7906
79.8461
70.4115
61.6949
53.8548
46.9945
41.1627
36.3595
32.5484
29.6694
27.6539
26.4381
25.9736
26.2349
27.2233
28.9663
31.5149
34.939
39.3232
44.7664
51.3923
59.3881
69.1282
81.5943
100
100
100
100
100
100
100
100
100
100
100
100
100
100
100
100
100
100
100
100
100
100
100
100
100
100
81.5943
69.1283
59.3883
51.3926
44.7668
39.3237
34.9396
31.5157
28.9674
27.2247
26.2366
25.9755
26.4403
27.6563
29.672
32.5512
36.3624
41.1655
46.9972
53.8572
61.697
70.4132
79.8473
89.7912
100
100
89.7907
79.8462
70.4111
61.693
53.8503
46.9852
41.1451
36.3288
32.4969
29.5864
27.5241
26.2406
25.6805
25.8099
26.62
28.1271
30.3693
33.4021
37.2919
42.1115
47.9384
54.8555
62.9399
72.1498
81.5943
85.4206
87.2383
88.2171
88.7915
89.1471
89.3742
89.5215
89.6172
89.6788
89.7174
89.7398
89.75
89.75
89.7398
89.7174
89.6788
89.6172
89.5215
89.3742
89.1471
88.7915
88.2171
87.2383
85.4206
81.5943
72.1498
62.94
54.8555
47.9385
42.1116
37.2921
33.4025
30.3698
28.1276
26.6207
25.8108
25.6815
26.2418
27.5254
29.5877
32.4983
36.3302
41.1466
46.9865
53.8515
61.6941
70.4119
79.8468
89.791
100
100
89.7914
79.8472
70.4121
61.6931
53.848
46.9783
41.1302
36.3005
32.4476
29.5048
27.3943
26.0408
25.3812
25.3724
25.9945
27.2509
29.1645
31.7722
35.1169
39.2375
44.1564
49.8564
56.2288
62.9399
69.1282
73.118
75.564
77.0808
78.0435
78.6667
79.0754
79.3448
79.5219
79.6367
79.709
79.7511
79.7705
79.7705
79.7511
79.709
79.6367
79.5219
79.3448
79.0754
78.6667
78.0435
77.0808
75.564
73.118
69.1282
62.9399
56.2289
49.8564
44.1564
39.2376
35.117
31.7724
29.1647
27.2511
25.9949
25.3728
25.3817
26.0414
27.395
29.5054
32.4483
36.3013
41.131
46.979
53.8486
61.6937
70.4125
79.8475
89.7915
100
100
89.7929
79.8501
70.4157
61.6966
53.8499
46.9763
41.1208
36.2783
32.4048
29.43
27.2718
25.8483
25.0889
24.9411
25.3735
26.3759
27.9554
30.1303
32.9204
36.3352
40.3575
44.9183
49.8564
54.8554
59.3881
62.8445
65.2856
66.96
68.098
68.8694
69.3911
69.7424
69.9768
70.1305
70.2279
70.285
70.3112
70.3112
70.285
70.2279
70.1305
69.9768
69.7424
69.3911
68.8694
68.098
66.96
65.2856
62.8445
59.3881
54.8555
49.8564
44.9183
40.3575
36.3353
32.9205
30.1304
27.9555
26.376
25.3737
24.9413
25.0892
25.8486
27.2721
29.4304
32.4052
36.2787
41.1211
46.9766
53.8502
61.6969
70.4159
79.8502
89.793
100
100
89.796
79.856
70.4238
61.706
53.859
46.9827
41.1209
36.267
32.3743
29.3693
27.1652
25.6744
24.8188
24.5366
24.7853
25.5417
26.7984
28.5568
30.818
33.5712
36.7788
40.3575
44.1564
47.9384
51.3923
54.2339
56.4134
58.0167
59.1672
59.9795
60.5458
60.9356
61.2
61.3756
61.4878
61.554
61.5846
61.5846
61.554
61.4878
61.3756
61.2
60.9356
60.5458
59.9795
59.1672
58.0167
56.4134
54.2339
51.3923
47.9384
44.1564
40.3575
36.7788
33.5712
30.818
28.5568
26.7985
25.5418
24.7853
24.5367
24.819
25.6745
27.1653
29.3694
32.3744
36.2671
41.1211
46.9828
53.8591
61.7061
70.4239
79.8561
89.7961
100
100
89.8016
79.8669
70.4393
61.725
53.8797
47.0028
41.1368
36.2734
32.3639
29.3316
27.0854
25.5323
24.5873
24.1799
24.2577
24.786
25.7443
27.1206
28.9025
31.0675
33.5712
36.3352
39.2375
42.1115
44.7664
47.0428
48.8802
50.2994
51.3614
52.1372
52.6928
53.0835
53.353
53.5341
53.6511
53.7205
53.7527
53.7527
53.7205
53.6511
53.5341
53.353
53.0835
52.6928
52.1372
51.3614
50.2994
48.8802
47.0428
44.7664
42.1115
39.2375
36.3352
33.5712
31.0675
28.9025
27.1206
25.7443
24.786
24.2578
24.18
24.5874
25.5324
27.0854
29.3316
32.364
36.2735
41.1369
47.0029
53.8798
61.725
70.4394
79.8669
89.8016
100
100
89.8112
79.8857
70.4665
61.7592
53.9191
47.0446
41.1774
36.3078
32.3848
29.3292
27.046
25.4376
24.4125
23.893
23.8177
24.1422
24.8355
25.8753
27.2404
28.9025
30.818
32.9204
35.1169
37.2919
39.3232
41.1105
42.6026
43.7957
44.7176
45.4101
45.9178
46.2818
46.5368
46.7103
46.8235
46.8911
46.9226
46.9226
46.8911
46.8235
46.7103
46.5368
46.2818
45.9178
45.4101
44.7176
43.7957
42.6026
41.1105
39.3232
37.2919
35.1169
32.9204
30.818
28.9025
27.2404
25.8753
24.8355
24.1422
23.8177
23.893
24.4125
25.4376
27.0461
29.3292
32.3849
36.3078
41.1775
47.0447
53.9191
61.7592
70.4665
79.8857
89.8112
100
100
89.8271
79.9168
70.5118
61.817
53.9871
47.1198
41.2558
36.3842
32.4524
29.3786
27.065
25.4094
24.3155
23.6991
23.4916
23.6405
24.1069
24.8607
25.8753
27.1206
28.5568
30.1303
31.7722
33.4021
34.9389
36.3157
37.4923
38.4575
39.2219
39.8092
40.2484
40.5687
40.7962
40.953
41.0561
41.1181
41.1471