# vtk DataFile Version 2.0
LBE two cylinders
ASCII
DATASET STRUCTURED_POINTS
DIMENSIONS 76 76 1
ASPECT_RATIO 1 1 1
ORIGIN 0 0 0
POINT_DATA 5776
SCALARS temp double 1
LOOKUP_TABLE default
100
100
100
100
100
100
100
100
100
100
100
100
100
100
100
100
100
100
100
100
100
100
100
100
100
100
-300
-300
-300
-300
-300
-300
-300
-300
-300
-300
-300
-300
-300
-300
100
100
100
100
100
100
100
100
100
100
100
100
100
100
100
100
100
100
100
100
100
100
100
100
100
100
-300
-300
-300
-300
-300
-300
-300
-300
-300
-300
100
98.7691
97.5685
96.4266
95.3677
94.4113
93.5707
92.8537
92.2632
91.798
91.4547
91.2291
91.1173
91.1173
91.2291
91.4547
91.798
92.2632
92.8537
93.5707
94.4113
95.3677
96.4266
97.5685
98.7691
100
-300
-300
-300
-300
-300
-300
-300
-300
-300
-300
-300
-300
-300
-300
100
98.7703
97.5708
96.4299
95.3719
94.4162
93.5761
92.8594
92.269
91.8037
91.4602
91.2342
91.1219
91.1214
91.2326
91.4577
91.8004
92.2651
92.8552
93.5718
94.4121
95.3683
96.427
97.5687
98.7692
100
-300
-300
-300
-300
-300
-300
-300
-300
-300
-300
100
97.568
95.196
92.9398
90.8478
88.9581
87.2973
85.8808
84.7141
83.795
83.1168
82.6709
82.4501
82.4501
82.6709
83.1168
83.795
84.7141
85.8808
87.2973
88.9581
90.8478
92.9398
95.196
97.568
100
-300
-300
-300
-300
-300
-300
-300
-300
-300
-300
-300
-300
-300
-300
100
97.5708
95.2014
92.9476
90.8576
88.9695
87.3099
85.8941
84.7276
83.8083
83.1295
82.6828
82.4608
82.4596
82.6791
83.1236
83.8006
84.7185
85.8842
87.2998
88.9599
90.8491
92.9407
95.1965
97.5683
100
-300
-300
-300
-300
-300
-300
-300
-300
-300
-300
100
96.4245
92.9371
89.6201
86.5445
83.7661
81.3244
79.2419
77.5267
76.1755
75.1783
74.5229
74.1982
74.1982
74.5229
75.1783
76.1755
77.5267
79.2419
81.3244
83.7661
86.5445
89.6201
92.9371
96.4245
100
-300
-300
-300
-300
-300
-300
-300
-300
-300
-300
-300
-300
-300
-300
100
96.4297
92.9472
89.6348
86.5629
83.7877
81.3482
79.2671
77.5523
76.2007
75.2025
74.5453
74.2185
74.2161
74.5382
75.1912
76.186
77.535
79.2483
81.3292
83.7696
86.5469
89.6217
92.9381
96.4249
100
-300
-300
-300
-300
-300
-300
-300
-300
-300
-300
100
95.3621
90.8386
86.536
82.5465
78.9427
75.7755
73.0743
70.8494
69.0967
67.8034
66.9532
66.5321
66.5321
66.9532
67.8034
69.0967
70.8494
73.0743
75.7755
78.9427
82.5465
86.536
90.8386
95.3621
100
-300
-300
-300
-300
-300
-300
-300
-300
-300
-300
-300
-300
-300
-300
100
95.3712
90.8564
86.5618
82.5792
78.9808
75.8176
73.1188
70.8947
69.1414
67.8461
66.9929
66.568
66.5638
66.9804
67.8262
69.1153
70.8641
73.0856
75.7839
78.9488
82.5507
86.5388
90.8402
95.3629
100
-300
-300
-300
-300
-300
-300
-300
-300
-300
-300
100
94.399
88.936
83.74
78.922
74.5699
70.745
67.4829
64.796
62.6795
61.1176
60.0909
59.5824
59.5824
60.0909
61.1176
62.6795
64.796
67.4829
70.745
74.5699
78.922
83.74
88.936
94.399
100
-300
-300
-300
-300
-300
-300
-300
-300
-300
-300
-300
-300
-300
-300
100
94.4146
88.9666
83.7842
78.9779
74.6352
70.8172
67.5591
64.8737
62.756
61.1908
60.159
59.644
59.6367
60.1375
61.1566
62.7113
64.8212
67.5022
70.7594
74.5802
78.9291
83.7447
88.9388
94.4002
100
-300
-300
-300
-300
-300
-300
-300
-300
-300
-300
100
93.5469
87.2529
81.2664
75.7155
70.7013
66.2946
62.5363
59.4408
57.0024
55.203
54.0201
53.4342
53.4342
54.0201
55.203
57.0024
59.4408
62.5363
66.2946
70.7013
75.7155
81.2664
87.2529
93.5469
100
-300
-300
-300
-300
-300
-300
-300
-300
-300
-300
-300
-300
-300
-300
100
93.573
87.304
81.3402
75.8089
70.8105
66.4153
62.6638
59.5707
57.1304
55.3254
54.134
53.5374
53.5252
54.0981
55.2682
57.0554
59.4827
62.5684
66.3185
70.7183
75.7272
81.274
87.2574
93.5489
100
-300
-300
-300
-300
-300
-300
-300
-300
-300
-300
100
92.8112
85.7996
79.1307
72.9469
67.3612
62.4522
58.2656
54.8173
52.1009
50.0964
48.7788
48.1262
48.1262
48.7788
50.0964
52.1009
54.8173
58.2656
62.4522
67.3612
72.9469
79.1307
85.7996
92.8112
100
-300
-300
-300
-300
-300
-300
-300
-300
-300
-300
-300
-300
-300
-300
100
92.8538
85.8831
79.2514
73.0998
67.5399
62.6497
58.4743
55.03
52.3107
50.2971
48.9655
48.2952
48.2751
48.9065
50.2031
52.1875
54.8855
58.3178
62.4909
67.3887
72.9658
79.1428
85.8068
92.8145
100
-300
-300
-300
-300
-300
-300
-300
-300
-300
-300
100
92.1912
84.575
77.3309
70.614
64.5466
59.2144
54.6668
50.9212
47.9708
45.7935
44.3623
43.6535
43.6535
44.3623
45.7935
47.9708
50.9212
54.6668
59.2144
64.5466
70.614
77.3309
84.575
92.1912
100
-300
-300
-300
-300
-300
-300
-300
-300
-300
-300
-300
-300
-300
-300
100
92.2596
84.7088
77.5244
70.859
64.8331
59.5311
55.0017
51.2626
48.3074
46.1157
44.662
43.9247
43.8924
44.5671
45.9643
48.1092
51.0302
54.7499
59.2756
64.59
70.6435
77.3499
84.5861
92.1962
100
-300
-300
-300
-300
-300
-300
-300
-300
-300
-300
100
91.6813
83.5677
75.8506
68.6951
62.2316
56.5513
51.7068
47.7168
44.5738
42.2545
40.7298
39.9748
39.9748
40.7298
42.2545
44.5738
47.7168
51.7068
56.5513
62.2316
68.6951
75.8506
83.5677
91.6813
100
-300
-300
-300
-300
-300
-300
-300
-300
-300
-300
-300
-300
-300
-300
100
91.7885
83.7776
76.1543
69.0798
62.6816
57.0489
52.2333
48.2536
45.1034
42.7614
41.2014
40.4014
40.3504
41.0516
42.5224
44.7906
47.887
51.8362
56.6461
62.2985
68.7402
75.8793
83.5843
91.6888
100
-300
-300
-300
-300
-300
-300
-300
-300
-300
-300
100
91.2718
82.7589
74.662
67.1544
60.3728
54.413
49.3303
45.144
41.8464
39.413
37.8135
37.0213
37.0213
37.8135
39.413
41.8464
45.144
49.3303
54.413
60.3728
67.1544
74.662
82.7589
91.2718
100
-300
-300
-300
-300
-300
-300
-300
-300
-300
-300
-300
-300
-300
-300
100
91.4367
83.0817
75.1291
67.7463
61.0656
55.1795
50.1416
45.9714
42.663
40.1948
38.5406
37.6789
37.5999
38.3086
39.8249
42.179
45.4043
49.5272
54.5567
60.4734
67.2216
74.7043
82.7831
91.2827
100
-300
-300
-300
-300
-300
-300
-300
-300
-300
-300
100
90.9509
82.125
73.7303
65.9467
58.9158
52.737
47.4674
43.1273
39.7086
37.1859
35.5276
34.7063
34.7063
35.5276
37.1859
39.7086
43.1273
47.4674
52.737
58.9158
65.9467
73.7303
82.125
90.9509
100
-300
-300
-300
-300
-300
-300
-300
-300
-300
-300
-300
-300
-300
-300
100
91.1993
82.6114
74.4344
66.8393
59.9611
53.894
48.6928
44.3777
40.9429
38.3676
36.6267
35.7
35.5799
36.2743
37.8058
40.208
43.5168
47.7608
52.9496
59.0634
66.0441
73.7908
82.159
90.966
100
-300
-300
-300
-300
-300
-300
-300
-300
-300
-300
100
90.7052
81.6397
73.0173
65.0223
57.8007
51.4542
46.0418
41.584
38.0726
35.4814
33.7782
32.9346
32.9346
33.7782
35.4814
38.0726
41.584
46.0418
51.4542
57.8007
65.0223
73.0173
81.6397
90.7052
100
-300
-300
-300
-300
-300
-300
-300
-300
-300
-300
-300
-300
-300
-300
100
91.0721
82.3582
74.0575
66.3418
59.3466
53.1665
47.8562
43.4363
39.9018
37.233
35.4069
34.4065
34.2274
34.8815
36.3956
38.8068
42.1543
46.469
51.7615
58.0117
65.1597
73.1009
81.686
90.7254
100
-300
-300
-300
-300
-300
-300
-300
-300
-300
-300
100
90.5216
81.2771
72.4843
64.3315
56.9673
50.4956
44.9763
40.4305
36.8499
34.2076
32.4708
31.6106
31.6106
32.4708
34.2076
36.8499
40.4305
44.9763
50.4956
56.9673
64.3315
72.4843
81.2771
90.5216
100
-300
-300
-300
-300
-300
-300
-300
-300
-300
-300
-300
-300
-300
-300
100
91.0525
82.317
73.9908
66.2435
59.2089
52.9801
47.6109
43.1218
39.5085
36.7537
34.8377
33.7481
33.4858
34.0684
35.5281
37.9068
41.2477
45.5843
50.9287
57.2608
64.5191
72.5959
81.337
90.5471
100
-300
-300
-300
-300
-300
-300
-300
-300
-300
-300
100
90.3876
81.0124
72.0953
63.8273
56.359
49.7958
44.1986
39.5887
35.9575
33.2779
31.5166
30.6443
30.6443
31.5166
33.2779
35.9575
39.5887
44.1986
49.7958
56.359
63.8273
72.0953
81.0124
90.3876
100
-300
-300
-300
-300
-300
-300
-300
-300
-300
-300
-300
-300
-300
-300
100
91.1408
82.4881
74.2341
66.5437
59.5462
53.3314
47.9508
43.4241
39.748
36.9083
34.8903
33.6883
33.311
33.7838
35.1463
37.447
40.7339
45.044
50.3913
56.7558
64.0749
72.2377
81.0858
90.4176
100
-300
-300
-300
-300
-300
-300
-300
-300
-300
-300
100
90.292
80.8236
71.8179
63.4678
55.9253
49.2969
43.6441
38.9885
35.3213
32.6152
30.8363
29.9554
29.9554
30.8363
32.6152
35.3213
38.9885
43.6441
49.2969
55.9253
63.4678
71.8179
80.8236
90.292
100
-300
-300
-300
-300
-300
-300
-300
-300
-300
-300
-300
-300
-300
-300
100
91.3396
82.8769
74.7955
67.2524
60.3701
54.2325
48.8873
44.3521
40.6248
37.6948
35.5546
34.2078
33.6741
33.9899
35.205
37.3763
40.5581
44.7919
50.094
56.4452
63.7817
71.9899
80.9064
90.3236
100
-300
-300
-300
-300
-300
-300
-300
-300
-300
-300
100
90.2255
80.6922
71.6247
63.2174
55.6232
48.9495
43.258
38.5705
34.8782
32.1536
30.3626
29.4756
29.4756
30.3626
32.1536
34.8782
38.5705
43.258
48.9495
55.6232
63.2174
71.6247
80.6922
90.2255
100
-300
-300
-300
-300
-300
-300
-300
-300
-300
-300
-300
-300
-300
-300
100
91.654
83.4935
75.69
68.3895
61.7044
55.7104
50.4488
45.9338
42.1633
39.1314
36.8396
35.3047
34.5618
34.6625
35.6704
37.6532
40.6736
44.7782
49.9867
56.2809
63.5963
71.8167
80.7735
90.2516
100
-300
-300
-300
-300
-300
-300
-300
-300
-300
-300
100
90.1802
80.6027
71.4933
63.0469
55.4176
48.713
42.9952
38.286
34.5766
31.8395
30.0402
29.1491
29.1491
30.0402
31.8395
34.5766
38.286
42.9952
48.713
55.4176
63.0469
71.4933
80.6027
90.1802
100
-300
-300
-300
-300
-300
-300
-300
-300
-300
-300
-300
-300
-300
-300
100
92.0908
84.3513
76.9378
69.9818
63.5826
57.8043
52.679
48.2145
44.407
41.2551
38.7721
36.9928
35.9739
35.7883
36.5177
38.2439
41.0395
44.9577
50.0222
56.2164
63.4758
71.6817
80.6604
90.1876
100
-300
-300
-300
-300
-300
-300
-300
-300
-300
-300
100
90.1501
80.5432
71.4058
62.9336
55.2809
48.5558
42.8204
38.0968
34.3761
31.6306
29.8258
28.932
28.932
29.8258
31.6306
34.3761
38.0968
42.8204
48.5558
55.2809
62.9336
71.4058
80.5432
90.1501
100
-300
-300
-300
-300
-300
-300
-300
-300
-300
-300
-300
-300
-300
-300
100
92.6566
85.4639
78.5599
72.0586
66.0427
60.5612
55.6325
51.254
47.416
44.1199
41.3933
39.297
37.9183
37.3595
37.7262
39.1175
41.6175
45.2868
50.1534
56.2038
63.3742
71.5448
80.5367
90.1152
100
-300
-300
-300
-300
-300
-300
-300
-300
-300
-300
100
90.1305
80.5045
71.349
62.8599
55.192
48.4536
42.7068
37.9739
34.2458
31.4948
29.6865
28.7909
28.7909
29.6865
31.4948
34.2458
37.9739
42.7068
48.4536
55.192
62.8599
71.349
80.5045
90.1305
100
-300
-300
-300
-300
-300
-300
-300
-300
-300
-300
-300
-300
-300
-300
100
93.3565
86.8423
80.5741
74.6459
69.1208
64.0289
59.3698
55.1229
51.2651
47.7947
44.7561
42.248
40.404
39.367
39.2729
40.2409
42.367
45.7191
50.3301
56.1901
63.2387
71.3575
80.3644
90.013
100
-300
-300
-300
-300
-300
-300
-300
-300
-300
-300
100
90.118
80.4799
71.3129
62.8131
55.1356
48.3886
42.6347
37.8958
34.163
31.4086
29.598
28.7013
28.7013
29.598
31.4085
34.163
37.8958
42.6347
48.3886
55.1356
62.8131
71.3129
80.4799
90.118
100
-300
-300
-300
-300
-300
-300
-300
-300
-300
-300
-300
-300
-300
-300
100
94.1921
88.4902
82.9885
77.759
72.8433
68.2491
63.9511
59.9005
56.0451
52.3658
48.9219
45.8752
43.4315
41.7906
41.1245
41.5723
43.2406
46.2025
50.495
56.1136
63.0049
71.0574
80.0916
89.8507
100
-300
-300
-300
-300
-300
-300
-300
-300
-300
-300
100
90.1103
80.4647
71.2904
62.784
55.1005
48.3483
42.5898
37.8472
34.1116
31.355
29.543
28.6456
28.6456
29.543
31.355
34.1115
37.8472
42.5898
48.3483
55.1005
62.784
71.2904
80.4647
90.1103
100
-300
-300
-300
-300
-300
-300
-300
-300
-300
-300
-300
-300
-300
-300
100
95.1595
90.4011
85.7962
81.3947
77.2169
73.2468
69.4291
65.6731
61.8708
57.9478
53.9611
50.1957
46.9791
44.5868
43.2279
43.0557
44.1806
46.6764
50.5826
55.9013
62.5917
70.5596
79.6414
89.5799
100
-300
-300
-300
-300
-300
-300
-300
-300
-300
-300
100
90.1056
80.4554
71.2768
62.7664
55.0792
48.3237
42.5626
37.8177
34.0803
31.3224
29.5096
28.6118
28.6118
29.5096
31.3224
34.0803
37.8177
42.5626
48.3237
55.0792
62.7664
71.2768
80.4554
90.1056
100
-300
-300
-300
-300
-300
-300
-300
-300
-300
-300
-300
-300
-300
-300
100
96.2474
92.5539
88.9689
85.5228
82.2177
79.0175
75.8375
72.5337
68.9014
64.7209
59.9551
55.1959
50.9817
47.6737
45.5018
44.616
45.1173
47.0726
50.5198
55.4686
61.8974
69.7455
78.8932
89.1155
100
-300
-300
-300
-300
-300
-300
-300
-300
-300
-300
100
90.1028
80.4499
71.2687
62.7559
55.0665
48.3092
42.5464
37.8002
34.0617
31.3031
29.4897
28.5916
28.5916
29.4897
31.3031
34.0617
37.8002
42.5464
48.3092
55.0665
62.7559
71.2687
80.4499
90.1028
100
-300
-300
-300
-300
-300
-300
-300
-300
-300
-300
-300
-300
-300
-300
100
97.4365
94.9106
92.4525
90.0776
87.777
85.5065
83.1671
80.5704
77.3791
73.0422
66.9873
60.7841
55.2942
50.9113
47.8291
46.1587
45.9727
47.3204
50.2326
54.7248
60.7999
68.4498
77.6468
88.2882
100
-300
-300
-300
-300
-300
-300
-300
-300
-300
-300
100
90.1012
80.4467
71.264
62.7498
55.0591
48.3007
42.537
37.79
34.0509
31.2918
29.4782
28.58
28.5799
29.4782
31.2918
34.0509
37.79
42.537
48.3007
55.0591
62.7497
71.264
80.4466
90.1012
100
-300
-300
-300
-300
-300
-300
-300
-300
-300
-300
-300
-300
-300
-300
100
98.6989
97.4159
96.1652
94.9522
93.7682
92.5811
91.316
89.8075
87.6626
83.8249
75.0419
66.6708
59.6354
54.086
50.0576
47.5763
46.6681
47.3561
49.6579
53.5886
59.1706
66.4553
75.5617
86.7096
100
-300
-300
-300
-300
-300
-300
-300
-300
-300
-300
100
90.1003
80.4448
71.2613
62.7463
55.0549
48.2959
42.5316
37.7842
34.0448
31.2854
29.4716
28.5733
28.5733
29.4716
31.2854
34.0447
37.7842
42.5316
48.2958
55.0549
62.7462
71.2613
80.4448
90.1003
100
-300
-300
-300
-300
-300
-300
-300
-300
-300
-300
-300
-300
-300
-300
100
100
100
100
100
100
100
100
100
100
100
83.3503
72.0947
63.5362
56.9209
52.02
48.7649
47.1383
47.1378
48.7633
52.0175
56.9175
63.5321
72.0902
83.3465
100
100
100
100
100
100
100
100
100
100
100
100
90.0998
80.4438
71.2598
62.7443
55.0526
48.2932
42.5286
37.781
34.0414
31.2818
29.4679
28.5696
28.5696
29.4679
31.2818
34.0413
37.7809
42.5285
48.2931
55.0525
62.7442
71.2597
80.4438
90.0997
100
-300
-300
-300
-300
-300
-300
-300
-300
-300
-300
-300
-300
-300
-300
-300
-300
-300
-300
-300
-300
-300
-300
-300
-300
100
86.7096
75.5609
66.4531
59.1669
53.5833
49.6511
47.3479
46.6587
47.5659
50.0463
54.074
59.623
66.6583
75.03
83.8144
87.6529
89.7984
91.3077
92.5736
93.7617
94.9468
96.161
97.4131
98.6975
100
100
90.0995
80.4433
71.259
62.7433
55.0513
48.2917
42.527
37.7792
34.0395
31.2799
29.4659
28.5675
28.5675
29.4658
31.2798
34.0393
37.779
42.5268
48.2915
55.0511
62.7431
71.2588
80.4431
90.0994
100
-300
-300
-300
-300
-300
-300
-300
-300
-300
-300
-300
-300
-300
-300
-300
-300
-300
-300
-300
-300
-300
-300
-300
-300
100
88.2854
77.641
68.4409
60.788
54.7101
50.2153
47.3009
45.9514
46.1359
47.8052
50.8866
55.269
60.759
66.9628
73.0186
77.3567
80.5494
83.1477
85.4891
87.7618
90.065
92.4428
94.904
97.4331
100
100
90.0993
80.443
71.2586
62.7427
55.0506
48.2909
42.5261
37.7783
34.0385
31.2788
29.4648
28.5664
28.5663
29.4646
31.2786
34.0382
37.7779
42.5257
48.2905
55.0502
62.7423
71.2582
80.4427
90.0992
100
-300
-300
-300
-300
-300
-300
-300
-300
-300
-300
-300
-300
-300
-300
-300
-300
-300
-300
-300
-300
-300
-300
-300
-300
100
89.1094
78.8809
69.7274
61.8738
55.44
50.4868
47.0359
45.0774
44.5737
45.4577
47.6284
50.9358
55.15
59.9099
64.6771
68.8594
72.4942
75.801
78.9846
82.1891
85.4992
88.9507
92.5415
96.2411
100
100
90.0993
80.4428
71.2583
62.7424
55.0503
48.2905
42.5257
37.7777
34.0379
31.2782
29.4641
28.5657
28.5656
29.4639
31.2778
34.0373
37.7771
42.5249
48.2897
55.0495
62.7417
71.2577
80.4424
90.099
100
-300
-300
-300
-300
-300
-300
-300
-300
-300
-300
-300
-300
-300
-300
-300
-300
-300
-300
-300
-300
-300
-300
-300
-300
100
89.5687
79.6193
70.5271
62.5496
55.8505
50.5241
46.6115
44.1104
42.9814
43.1506
44.5075
46.8989
50.1156
53.8821
57.8709
61.7971
65.6035
69.3649
73.1891
77.1667
81.3531
85.7641
90.3793
95.1484
100
100
90.0992
80.4427
71.2582
62.7423
55.0501
48.2903
42.5254
37.7774
34.0375
31.2778
29.4637
28.5651
28.565
29.4632
31.277
34.0365
37.7762
42.524
48.2888
55.0486
62.7409
71.2571
80.4419
90.0988
100
-300
-300
-300
-300
-300
-300
-300
-300
-300
-300
-300
-300
-300
-300
-300
-300
-300
-300
-300
-300
-300
-300
-300
-300
100
89.8315
80.0537
71.0017
62.9328
56.0268
50.3953
46.0918
43.121
41.4458
40.9929
41.6557
43.2951
45.7389
48.7875
52.2349
55.9196
59.7821
63.8418
68.1507
72.7578
77.6881
82.9339
88.453
94.1733
100
100
90.0992
80.4427
71.2581
62.7422
55.05
48.2901
42.5252
37.7772
34.0372
31.2774
29.4632
28.5646
28.5643
29.4624
31.2761
34.0354
37.775
42.5227
48.2875
55.0473
62.7397
71.2561
80.4412
90.0984
100
-300
-300
-300
-300
-300
-300
-300
-300
-300
-300
-300
-300
-300
-300
-300
-300
-300
-300
-300
-300
-300
-300
-300
-300
100
89.981
80.3012
71.2647
63.1186
56.0454
50.164
45.535
42.1681
40.0304
39.0541
39.1428
40.1773
42.0217
44.5327
47.5773
51.0565
54.9263
59.1882
63.8655
68.9787
74.5281
80.4833
86.7804
93.3252
100
100
90.0992
80.4426
71.2581
62.7421
55.0499
48.29
42.525
37.777
34.0369
31.277
29.4626
28.5638
28.5633
29.4611
31.2746
34.0336
37.773
42.5205
48.2853
55.0452
62.7378
71.2545
80.4401
90.0978
100
-300
-300
-300
-300
-300
-300
-300
-300
-300
-300
-300
-300
-300
-300
-300
-300
-300
-300
-300
-300
-300
-300
-300
-300
100
90.0629
80.4336
71.3934
63.1784
55.9681
49.883
44.9869
41.2936
38.775
37.3702
36.9948
37.5496
38.9287
41.0301
43.7663
47.0768
50.9341
55.3371
60.2954
65.8116
71.8671
78.4122
85.3634
92.6057
100
100
90.0992
80.4426
71.258
62.742
55.0498
48.2899
42.5248
37.7766
34.0364
31.2763
29.4617
28.5626
28.5617
29.4592
31.2721
34.0308
37.7697
42.517
48.2816
55.0416
62.7345
71.2517
80.4381
90.0968
100
-300
-300
-300
-300
-300
-300
-300
-300
-300
-300
-300
-300
-300
-300
-300
-300
-300
-300
-300
-300
-300
-300
-300
-300
100
90.1042
80.4958
71.4402
63.1634
55.8404
49.5907
44.4795
40.5232
37.698
35.9504
35.2072
35.3865
36.4062
38.1935
40.692
43.8668
47.7051
52.2086
57.3812
63.2147
69.6769
76.7025
84.1912
92.0098
100
100
90.0991
80.4426
71.258
62.742
55.0496
48.2896
42.5245
37.7761
34.0357
31.2753
29.4603
28.5607
28.5592
29.4559
31.2682
34.0261
37.7644
42.5111
48.2755
55.0356
62.729
71.2472
80.4348
90.0951
100
-300
-300
-300
-300
-300
-300
-300
-300
-300
-300
-300
-300
-300
-300
-300
-300
-300
-300
-300
-300
-300
-300
-300
-300
100
90.1212
80.5161
71.4391
63.108
55.6933
49.3127
44.0313
39.8675
36.8011
34.785
33.7559
33.6454
34.3898
35.9373
38.2531
41.3208
45.1394
49.7153
55.0505
61.1308
67.9141
75.3233
83.244
91.5277
100
100
90.0991
80.4426
71.2579
62.7418
55.0494
48.2893
42.524
37.7754
34.0346
31.2737
29.458
28.5576
28.5551
29.4507
31.2618
34.0185
37.7557
42.5016
48.2655
55.0257
62.7199
71.2396
80.4293
90.0922
100
-300
-300
-300
-300
-300
-300
-300
-300
-300
-300
-300
-300
-300
-300
-300
-300
-300
-300
-300
-300
-300
-300
-300
-300
100
90.1237
80.5121
71.4115
63.0338
55.5457
49.0626
43.6493
39.3253
36.0735
33.8517
32.6043
32.2738
32.81
34.1763
36.3533
39.3381
43.139
47.7671
53.2248
59.4942
66.5265
74.2355
82.4958
91.1467
100
100
90.0991
80.4425
71.2578
62.7416
55.0491
48.2888
42.5232
37.7742
34.0328
31.2711
29.4545
28.5528
28.5488
29.4426
31.2517
34.0064
37.7417
42.4863
48.2494
55.0098
62.7052
71.2272
80.4204
90.0875
100
-300
-300
-300
-300
-300
-300
-300
-300
-300
-300
-300
-300
-300
-300
-300
-300
-300
-300
-300
-300
-300
-300
-300
-300
100
90.1175
80.4938
71.3697
62.9528
55.4067
48.8449
43.3317
38.887
35.4959
33.12
31.7097
31.2155
31.5968
32.8282
34.9015
37.8234
41.6096
46.2754
51.8244
58.2364
65.4581
73.3966
81.9183
90.8523
100
100
90.0991
80.4424
71.2576
62.7414
55.0487
48.2881
42.522
37.7724
34.0302
31.2673
29.4491
28.5454
28.539
29.43
31.2359
33.9875
37.72
42.4622
48.224
54.9845
62.6818
71.2075
80.4061
90.08
100
-300
-300
-300
-300
-300
-300
-300
-300
-300
-300
-300
-300
-300
-300
-300
-300
-300
-300
-300
-300
-300
-300
-300
-300
100
90.1055
80.4661
71.3191
62.8694
55.2781
48.6572
43.0702
38.5371
35.0444
32.5564
31.0276
30.4142
30.6828
31.816
33.8134
36.6888
40.4636
45.1567
50.7726
57.2903
64.6533
72.7641
81.4824
90.63
100
100
90.099
80.4423
71.2574
62.7409
55.048
48.287
42.5203
37.7698
34.0263
31.2616
29.441
28.5343
28.5242
29.4109
31.2121
33.9587
37.6865
42.4249
48.1846
54.9451
62.6451
71.1765
80.3836
90.0681
100
-300
-300
-300
-300
-300
-300
-300
-300
-300
-300
-300
-300
-300
-300
-300
-300
-300
-300
-300
-300
-300
-300
-300
-300
100
90.0883
80.4298
71.2602
62.7824
55.1561
48.4918
42.8521
38.2568
34.6929
32.1262
30.5142
29.817
30.0062
31.0698
33.0132
35.8555
39.6221
44.3348
49.9992
56.5939
64.0604
72.2976
81.1607
90.4659
100
100
90.0989
80.4421
71.2571
62.7404
55.047
48.2854
42.5178
37.766
34.0206
31.2533
29.4293
28.5181
28.5024
29.3826
31.1765
33.9155
37.636
42.3684
48.1244
54.8845
62.5884
71.1283
80.3484
90.0496
100
-300
-300
-300
-300
-300
-300
-300
-300
-300
-300
-300
-300
-300
-300
-300
-300
-300
-300
-300
-300
-300
-300
-300
-300
100
90.0647
80.3825
71.1888
62.6858
55.0321
48.337
42.6618
38.0255
34.4148
31.7964
30.1293
29.3761
29.5118
30.5284
32.4351
35.2549
39.0163
43.7432
49.4424
56.0923
63.633
71.9611
80.9285
90.3474
100
100
90.0988
80.4418
71.2566
62.7395
55.0456
48.2832
42.5144
37.7606
34.0125
31.2415
29.4125
28.4948
28.4711
29.3416
31.1246
33.852
37.5614
42.2843
48.034
54.793
62.5021
71.0546
80.2944
90.0209
100
-300
-300
-300
-300
-300
-300
-300
-300
-300
-300
-300
-300
-300
-300
-300
-300
-300
-300
-300
-300
-300
-300
-300
-300
100
90.0318
80.3186
71.0969
62.5693
54.8936
48.1777
42.4812
37.8216
34.1846
31.5364
29.8367
29.0497
29.1525
30.1396
32.0233
34.8291
38.5881
43.3256
49.0496
55.7384
63.3315
71.7237
80.7646
90.2637
100
100
90.0987
80.4415
71.256
62.7384
55.0438
48.2802
42.5096
37.7533
34.0014
31.2252
29.3891
28.4622
28.4268
29.2834
31.0505
33.7608
37.4531
42.1612
47.9008
54.6567
62.3726
70.9431
80.2121
89.9772
100
-300
-300
-300
-300
-300
-300
-300
-300
-300
-300
-300
-300
-300
-300
-300
-300
-300
-300
-300
-300
-300
-300
-300
-300
100
89.9847
80.2287
70.9718
62.4177
54.7237
47.9956
42.2906
37.6234
33.9776
31.3185
29.6052
28.8025
28.8888
29.8606
31.7321
34.531
38.2901
43.0361
48.7778
55.4938
63.1231
71.5596
80.6514
90.2059
100
100
90.0985
80.441
71.2551
62.737
55.0413
48.2762
42.5032
37.7434
33.9864
31.2031
29.3572
28.4175
28.3659
29.2028
30.9469
33.6322
37.2993
41.9846
47.7075
54.457
62.1808
70.7763
80.0881
89.9108
100
-300
-300
-300
-300
-300
-300
-300
-300
-300
-300
-300
-300
-300
-300
-300
-300
-300
-300
-300
-300
-300
-300
-300
-300
100
89.9159
80.0991
70.7952
62.2103
54.5005
47.7687
42.0677
37.4083
33.7707
31.1177
29.4076
28.6049
28.6888
29.6569
31.5253
34.3231
38.0847
42.8381
48.5929
55.3278
62.982
71.4486
80.5748
90.1668
100
100
90.0982
80.4405
71.254
62.7351
55.0382
48.271
42.4949
37.7304
33.9668
31.1739
29.3149
28.3579
28.2841
29.0935
30.8055
33.455
37.085
41.7358
47.4317
54.1685
61.8999
70.5289
79.9021
89.8106
100
-300
-300
-300
-300
-300
-300
-300
-300
-300
-300
-300
-300
-300
-300
-300
-300
-300
-300
-300
-300
-300
-300
-300
-300
100
89.8139
79.9092
70.5411
61.9187
54.196
47.4704
41.788
37.1533
33.5416
30.9121
29.2213
28.433
28.5269
29.5016
31.3746
34.1765
37.9432
42.7037
48.4685
55.2169
62.888
71.3748
80.524
90.1409
100
100
90.0979
80.4397
71.2527
62.7327
55.0342
48.2644
42.4844
37.7139
33.9415
31.1362
29.2601
28.2801
28.1766
28.949
30.6168
33.216
36.7927
41.3919
47.0452
53.7573
61.4929
70.1645
79.6239
89.659
100
-300
-300
-300
-300
-300
-300
-300
-300
-300
-300
-300
-300
-300
-300
-300
-300
-300
-300
-300
-300
-300
-300
-300
-300
100
89.6611
79.6285
70.1721
61.5047
53.7744
47.069
41.424
36.8346
33.2691
30.682
29.0271
28.2676
28.3833
29.3741
31.2588
34.0696
37.8438
42.6119
48.3851
55.1434
62.8262
71.3265
80.4908
90.124
100
100
90.0975
80.4389
71.251
62.7298
55.0293
48.2563
42.4713
37.6934
33.9101
31.089
29.1911
28.1815
28.0393
28.7628
30.371
32.9015
36.4029
40.9264
46.5128
53.1801
60.9092
69.6299
79.2071
89.4281
100
-300
-300
-300
-300
-300
-300
-300
-300
-300
-300
-300
-300
-300
-300
-300
-300
-300
-300
-300
-300
-300
-300
-300
-300
100
89.4294
79.2099
69.6346
60.9163
53.1904
46.5272
40.9457
36.4281
32.9333
30.4101
28.8095
28.0937
28.2432
29.2593
31.1624
33.9867
37.7712
42.5477
48.3286
55.0947
62.7859
71.2953
80.4695
90.1132
100
100
90.0971
80.4379
71.2491
62.7264
55.0235
48.2467
42.4557
37.6687
33.8719
31.0315
29.1063
28.0596
27.8683
28.5289
30.0594
32.4976
35.8954
40.31
45.7937
52.3818
60.0798
68.8473
78.5777
89.07
100
-300
-300
-300
-300
-300
-300
-300
-300
-300
-300
-300
-300
-300
-300
-300
-300
-300
-300
-300
-300
-300
-300
-300
-300
100
89.0708
78.5794
68.8501
60.084
52.388
45.8022
40.3214
35.9102
32.5163
30.0823
28.5563
27.9002
28.0958
29.1463
31.0745
33.9169
37.7144
42.5005
48.2891
55.0619
62.7593
71.2751
80.4559
90.1063
100
100
90.0966
80.4368
71.247
62.7226
55.0168
48.2356
42.4376
37.6398
33.827
30.9633
29.0053
27.9133
27.6614
28.2433
29.6749
31.9933
35.2519
39.514
44.8438
51.2976
58.9141
67.7016
77.6132
88.4963
100
-300
-300
-300
-300
-300
-300
-300
-300
-300
-300
-300
-300
-300
-300
-300
-300
-300
-300
-300
-300
-300
-300
-300
-300
100
88.4968
77.6142
67.7032
58.9166
51.3011
44.8487
39.5206
35.2604
32.004
29.6881
28.2591
27.6798
27.9341
29.0282
30.988
33.8528
37.666
42.4633
48.26
55.039
62.7416
71.262
80.4471
90.1019
100
100
90.0962
80.4356
71.2448
62.7185
55.0096
48.2232
42.4172
37.607
33.7757
30.8849
28.8883
27.7428
27.4185
27.905
29.2146
31.3818
34.4597
38.5148
43.6216
49.8572
57.2996
66.0262
76.1031
87.5251
100
-300
-300
-300
-300
-300
-300
-300
-300
-300
-300
-300
-300
-300
-300
-300
-300
-300
-300
-300
-300
-300
-300
-300
-300
100
87.5254
76.1036
66.0272
57.3011
49.8593
43.6244
38.5186
34.4645
31.3879
29.2221
27.9139
27.4288
27.7545
28.9012
30.8988
33.7902
37.6218
42.4317
48.237
55.0221
62.7292
71.2532
80.4415
90.0992
100
100
90.0958
80.4346
71.2427
62.7144
55.0021
48.2101
42.3952
37.5712
33.719
30.7977
28.7572
27.5503
27.142
27.5167
28.6811
30.6646
33.5164
37.3022
42.1001
48.0008
55.115
63.5953
73.6795
85.7306
100
-300
-300
-300
-300
-300
-300
-300
-300
-300
-300
-300
-300
-300
-300
-300
-300
-300
-300
-300
-300
-300
-300
-300
-300
100
85.7308
73.6798
63.5958
55.1158
48.002
42.1016
37.3042
33.5191
30.6679
28.6853
27.5216
27.1477
27.5567
28.7643
30.8054
33.7271
37.5794
42.4032
48.2177
55.009
62.7203
71.2473
80.4379
90.0974
100
100
90.0956
80.434
71.241
62.7108
54.995
48.1972
42.3726
37.5338
33.659
30.7041
28.6152
27.3401
26.8379
27.0861
28.084
29.853
32.4347
35.8873
40.2827
45.7077
52.2753
60.164
69.7395
81.9663
100
100
100
100
100
100
100
100
100
100
100
100
100
100
100
100
100
100
100
100
100
100
100
100
100
100
81.9663
69.7396
60.1643
52.2757
45.7083
40.2835
35.8884
32.4362
29.8548
28.0862
27.0888
26.841
27.3436
28.6191
30.7083
33.6633
37.5382
42.377
48.2013
54.9988
62.714
71.2435
80.4357
90.0965
100
100
90.0958
80.4341
71.2404
62.7085
54.9894
48.1856
42.3513
37.4968
33.5982
30.6078
28.4673
27.119
26.5153
26.6257
27.4402
28.97
31.245
34.3099
38.2198
43.0365
48.8283
55.6713
63.6394
72.6936
81.9663
85.7306
87.5251
88.4962
89.0698
89.4277
89.6582
89.8092
89.9084
89.9731
90.0139
90.0379
90.0489
90.0489
90.0379
90.0139
89.9731
89.9084
89.8092
89.6582
89.4277
89.0698
88.4962
87.5251
85.7306
81.9663
72.6936
63.6395
55.6714
48.8285
43.0368
38.2202
34.3105
31.2458
28.971
27.4414
26.6271
26.5169
27.1208
28.4694
30.61
33.6005
37.4992
42.3536
48.1878
54.9914
62.7102
71.2418
80.435
90.0962
100
100
90.0966
80.4355
71.2418
62.7088
54.9868
48.1774
42.3334
37.4634
33.5405
30.5137
28.3201
26.8959
26.1864
26.1522
26.7732
28.0484
29.9937
32.6367
36.0101
40.1435
45.0514
50.712
57.0167
63.6394
69.7394
73.6794
76.103
77.613
78.5773
79.2063
79.6225
79.8995
80.0835
80.2042
80.281
80.3262
80.347
80.347
80.3262
80.281
80.2042
80.0835
79.8995
79.6225
79.2063
78.5773
77.613
76.103
73.6794
69.7395
63.6395
57.0168
50.7121
45.0515
40.1437
36.0103
32.637
29.9941
28.0489
26.7738
26.1529
26.1872
26.8969
28.3212
30.5149
33.5417
37.4646
42.3346
48.1785
54.9878
62.7097
71.2425
80.436
90.0969
100
100
90.0987
80.4393
71.2467
62.7135
54.9896
48.1755
42.3227
37.4377
33.4912
30.4285
28.1819
26.6818
25.8659
25.686
26.111
27.1275
28.7367
30.9487
33.7747
37.216
41.249
45.8012
50.712
55.6712
60.164
63.5952
66.0261
67.7013
68.8467
69.6288
70.1625
70.5253
70.7699
70.9322
71.0361
71.0975
71.1259
71.1259
71.0975
71.0361
70.9322
70.7699
70.5253
70.1625
69.6288
68.8467
67.7013
66.0261
63.5952
60.164
55.6713
50.712
45.8013
41.2491
37.2161
33.7748
30.9488
28.7369
27.1278
26.1113
25.6863
25.8663
26.6823
28.1824
30.429
33.4918
37.4383
42.3233
48.1761
54.9901
62.714
71.247
80.4396
90.0988
100
100
90.1027
80.4469
71.2572
62.7257
55.0014
48.1842
42.324
37.4257
33.4571
30.3603
28.0629
26.4896
25.5707
25.2492
25.4837
26.2487
27.5316
29.3271
31.6289
34.4192
37.6547
41.249
45.0514
48.8283
52.2752
55.1149
57.2994
58.9138
60.079
60.9078
61.4905
61.8955
62.1731
62.3595
62.4799
62.5515
62.5848
62.5848
62.5515
62.4799
62.3595
62.1731
61.8955
61.4905
60.9078
60.079
58.9138
57.2994
55.1149
52.2752
48.8283
45.0514
41.2491
37.6547
34.4192
31.6289
29.3272
27.5317
26.2489
25.4839
25.2494
25.5709
26.4898
28.0632
30.3606
33.4574
37.426
42.3243
48.1845
55.0017
62.7259
71.2574
80.4471
90.1027
100
100
90.1098
80.4607
71.2768
62.7497
55.0278
48.2099
42.3448
37.4356
33.4477
30.32
27.9758
26.3344
25.3193
24.8654
24.9217
25.4519
26.4316
27.8428
29.6671
31.8757
34.4192
37.216
40.1435
43.0365
45.7076
48.0007
49.857
51.2971
52.381
53.1786
53.7546
54.1636
54.4487
54.6424
54.7687
54.8444
54.8797
54.8797
54.8444
54.7687
54.6424
54.4487
54.1636
53.7546
53.1786
52.381
51.2971
49.857
48.0007
45.7076
43.0365
40.1435
37.216
34.4192
31.8757
29.6671
27.8429
26.4316
25.452
24.9218
24.8655
25.3194
26.3345
27.976
30.3201
33.4479
37.4357
42.345
48.21
55.0279
62.7498
71.2768
80.4607
90.1098
100
100
90.1216
80.4839
71.3103
62.7919
55.0763
48.2616
42.3953
37.4789
33.4758
30.3217
27.9363
26.234
25.1324
24.559
24.4546
24.7737
25.4822
26.5529
27.959
29.6671
31.6289
33.7747
36.0101
38.2197
40.2826
42.1
43.6214
44.8433
45.7929
46.5112
47.0424
47.4268
47.6989
47.8861
48.0094
48.0837
48.1185
48.1185
48.0837
48.0094
47.8861
47.6989
47.4268
47.0424
46.5112
45.7929
44.8433
43.6214
42.1
40.2826
38.2197
36.0101
33.7747
31.6289
29.6671
27.9591
26.5529
25.4823
24.7738
24.4547
24.559
25.1324
26.2341
27.9364
30.3217
33.4758
37.479
42.3954
48.2617
55.0764
62.7919
71.3103
80.4839
90.1216
100
100
90.1407
80.5214
71.3649
62.8616
55.1584
48.3524
42.4901
37.5717
33.5585
30.384
27.9646
26.2103
25.0338
24.3565
24.1122
24.248
24.7223
25.5011
26.5529
27.8428
29.3271
30.9487
32.6367
34.3099
35.8872
37.3021
38.5146
39.5135
40.3092
40.9249
41.3892
41.731
41.9763
42.1471
42.2606
42.3294
42.3618