# vtk DataFile Version 2.0
LBE two cylinders
ASCII
DATASET STRUCTURED_POINTS
DIMENSIONS 76 76 1
ASPECT_RATIO 1 1 1
ORIGIN 0 0 0
POINT_DATA 5776
SCALARS temp double 1
LOOKUP_TABLE default
100
100
100
100
100
100
100
100
100
100
100
100
100
100
100
100
100
100
100
100
100
100
100
100
100
100
-300
-300
-300
-300
-300
-300
-300
-300
-300
-300
-300
-300
-300
-300
100
100
100
100
100
100
100
100
100
100
100
100
100
100
100
100
100
100
100
100
100
100
100
100
100
100
-300
-300
-300
-300
-300
-300
-300
-300
-300
-300
100
98.7507
97.5327
96.3749
95.3024
94.3348
93.4856
92.7626
92.1682
91.7007
91.3562
91.1301
91.0182
91.0182
91.1301
91.3562
91.7007
92.1682
92.7626
93.4856
94.3348
95.3024
96.3749
97.5327
98.7507
100
-300
-300
-300
-300
-300
-300
-300
-300
-300
-300
-300
-300
-300
-300
100
98.7518
97.5348
96.3779
95.3062
94.3393
93.4906
92.7679
92.1735
91.7059
91.3612
91.1347
91.0224
91.0219
91.1332
91.3589
91.7028
92.1699
92.764
93.4866
94.3355
95.3029
96.3752
97.5329
98.7508
100
-300
-300
-300
-300
-300
-300
-300
-300
-300
-300
100
97.5322
95.1261
92.839
90.7204
88.809
87.1316
85.7034
84.5291
83.6057
82.9253
82.4785
82.2575
82.2575
82.4785
82.9253
83.6057
84.5291
85.7034
87.1316
88.809
90.7204
92.839
95.1261
97.5322
100
-300
-300
-300
-300
-300
-300
-300
-300
-300
-300
-300
-300
-300
-300
100
97.5347
95.131
92.8461
90.7294
88.8195
87.1432
85.7157
84.5416
83.6179
82.9369
82.4894
82.2673
82.2661
82.4859
82.9314
83.6107
84.5331
85.7065
87.1339
88.8106
90.7215
92.8398
95.1265
97.5324
100
-300
-300
-300
-300
-300
-300
-300
-300
-300
-300
100
96.3729
92.8364
89.475
86.3611
83.5518
81.0865
78.9874
77.2615
75.9042
74.9042
74.2476
73.9227
73.9227
74.2476
74.9042
75.9042
77.2615
78.9874
81.0865
83.5518
86.3611
89.475
92.8364
96.3729
100
-300
-300
-300
-300
-300
-300
-300
-300
-300
-300
-300
-300
-300
-300
100
96.3777
92.8458
89.4885
86.3782
83.5717
81.1085
79.0106
77.2851
75.9275
74.9264
74.2682
73.9413
73.9391
74.2617
74.9159
75.9138
77.269
78.9932
81.0908
83.5549
86.3632
89.4764
92.8373
96.3733
100
-300
-300
-300
-300
-300
-300
-300
-300
-300
-300
100
95.297
90.7116
86.3531
82.3156
78.673
75.4765
72.7549
70.5171
68.7573
67.4606
66.6093
66.1881
66.1881
66.6093
67.4606
68.7573
70.5171
72.7549
75.4765
78.673
82.3156
86.3531
90.7116
95.297
100
-300
-300
-300
-300
-300
-300
-300
-300
-300
-300
-300
-300
-300
-300
100
95.3056
90.7283
86.3771
82.346
78.7085
75.5157
72.7962
70.5591
68.7987
67.5002
66.646
66.2212
66.2173
66.6344
67.4815
68.7743
70.5305
72.7652
75.4842
78.6785
82.3194
86.3555
90.7131
95.2977
100
-300
-300
-300
-300
-300
-300
-300
-300
-300
-300
100
94.3231
88.7881
83.527
78.6534
74.2566
70.3982
67.113
64.4118
62.2877
60.7226
59.695
59.1865
59.1865
59.695
60.7226
62.2877
64.4118
67.113
70.3982
74.2566
78.6534
83.527
88.7881
94.3231
100
-300
-300
-300
-300
-300
-300
-300
-300
-300
-300
-300
-300
-300
-300
100
94.3378
88.8168
83.5684
78.7058
74.3177
70.4657
67.1843
64.4843
62.359
60.7908
59.7583
59.2438
59.2369
59.7382
60.7586
62.3169
64.4349
67.1306
70.4113
74.2659
78.6598
83.5312
88.7906
94.3243
100
-300
-300
-300
-300
-300
-300
-300
-300
-300
-300
100
93.4631
87.0895
81.0313
75.4194
70.3565
65.9137
62.1308
59.0205
56.5746
54.7725
53.5893
53.0038
53.0038
53.5893
54.7725
56.5746
59.0205
62.1308
65.9137
70.3565
75.4194
81.0313
87.0895
93.4631
100
-300
-300
-300
-300
-300
-300
-300
-300
-300
-300
-300
-300
-300
-300
100
93.4877
87.1377
81.101
75.5075
70.4594
66.0273
62.2508
59.1426
56.6948
54.8874
53.696
53.1002
53.0886
53.662
54.8331
56.6237
59.0592
62.1603
65.9355
70.3721
75.4301
81.0382
87.0935
93.4649
100
-300
-300
-300
-300
-300
-300
-300
-300
-300
-300
100
92.7221
85.6261
78.8812
72.6333
66.9966
62.0502
57.8387
54.376
51.653
49.6466
48.3294
47.6776
47.6776
48.3294
49.6466
51.653
54.376
57.8387
62.0502
66.9966
72.6333
78.8812
85.6261
92.7221
100
-300
-300
-300
-300
-300
-300
-300
-300
-300
-300
-300
-300
-300
-300
100
92.7626
85.7054
78.9959
72.7783
67.166
62.2373
58.0364
54.5771
51.8511
49.836
48.5053
47.8365
47.8174
48.4491
49.7463
51.7337
54.4394
57.887
62.0858
67.0218
72.6505
78.8923
85.6326
92.7251
100
-300
-300
-300
-300
-300
-300
-300
-300
-300
-300
100
92.0993
84.396
77.074
70.2914
64.1724
58.8029
54.2311
50.4722
47.5163
45.3384
43.9085
43.2009
43.2009
43.9085
45.3384
47.5163
50.4722
54.2311
58.8029
64.1724
70.2914
77.074
84.396
92.0993
100
-300
-300
-300
-300
-300
-300
-300
-300
-300
-300
-300
-300
-300
-300
100
92.1646
84.5238
77.2587
70.5252
64.4457
59.1048
54.5501
50.7969
47.8362
45.6442
44.1926
43.4576
43.4266
44.1015
45.499
47.6461
50.574
54.3085
58.8597
64.2125
70.3185
77.0913
84.4061
92.1038
100
-300
-300
-300
-300
-300
-300
-300
-300
-300
-300
100
91.5885
83.3872
75.5918
68.3708
61.8563
56.1397
51.2724
47.2706
44.1237
41.8051
40.2829
39.5296
39.5296
40.2829
41.8051
44.1237
47.2706
51.2724
56.1397
61.8563
68.3708
75.5918
83.3872
91.5885
100
-300
-300
-300
-300
-300
-300
-300
-300
-300
-300
-300
-300
-300
-300
100
91.6915
83.5888
75.8834
68.74
62.2879
56.6167
51.7767
47.7843
44.6299
42.2891
40.7324
39.9356
39.8864
40.5879
42.0586
44.3282
47.4306
51.3936
56.2282
61.9184
68.4124
75.6182
83.4023
91.5953
100
-300
-300
-300
-300
-300
-300
-300
-300
-300
-300
100
91.1797
82.5798
74.4056
66.8337
60.0026
54.0083
48.9046
44.7084
41.4088
38.9776
37.3815
36.5916
36.5916
37.3815
38.9776
41.4088
44.7084
48.9046
54.0083
60.0026
66.8337
74.4056
82.5798
91.1797
100
-300
-300
-300
-300
-300
-300
-300
-300
-300
-300
-300
-300
-300
-300
100
91.3389
82.8915
74.8564
67.4048
60.6707
54.7469
49.6858
45.5045
42.1935
39.7279
38.0783
37.2209
37.1443
37.8534
39.3692
41.7241
44.9545
49.0901
54.1431
60.0965
66.896
74.4445
82.6019
91.1896
100
-300
-300
-300
-300
-300
-300
-300
-300
-300
-300
100
90.8603
81.9492
73.4791
65.6331
58.5548
52.3436
47.0553
42.7073
39.2883
36.7692
35.1154
34.297
34.297
35.1154
36.7692
39.2883
42.7073
47.0553
52.3436
58.5548
65.6331
73.4791
81.9492
90.8603
100
-300
-300
-300
-300
-300
-300
-300
-300
-300
-300
-300
-300
-300
-300
100
91.1015
82.4212
74.1621
66.4987
59.5678
53.4642
48.2412
43.9162
40.4804
37.9092
36.1741
35.2527
35.1357
35.8307
37.3617
39.7643
43.0774
47.333
52.544
58.6931
65.7238
73.5349
81.9804
90.8741
100
-300
-300
-300
-300
-300
-300
-300
-300
-300
-300
100
90.6169
81.4684
72.7727
64.7178
57.451
51.0745
45.6454
41.1818
37.6718
35.0858
33.388
32.5478
32.5478
33.388
35.0858
37.6718
41.1818
45.6454
51.0745
57.451
64.7178
72.7727
81.4684
90.6169
100
-300
-300
-300
-300
-300
-300
-300
-300
-300
-300
-300
-300
-300
-300
100
90.9746
82.1688
73.7865
66.0033
58.9564
52.7407
47.4098
42.9813
39.447
36.7835
34.9645
33.9702
33.7949
34.4501
35.9637
38.3751
41.7264
46.0518
51.3654
57.6497
64.8461
72.8503
81.5108
90.6353
100
-300
-300
-300
-300
-300
-300
-300
-300
-300
-300
100
90.4357
81.1106
72.247
64.0366
56.6296
50.1301
44.5963
40.0466
36.4689
33.833
32.1025
31.2461
31.2461
32.1025
33.833
36.4689
40.0466
44.5963
50.1301
56.6296
64.0366
72.247
81.1106
90.4357
100
-300
-300
-300
-300
-300
-300
-300
-300
-300
-300
-300
-300
-300
-300
100
90.9557
82.1289
73.7217
65.9075
58.8219
52.5584
47.1694
42.6726
39.0605
36.3119
34.4038
33.3211
33.0633
33.6475
35.107
37.486
40.8304
45.1773
50.542
56.9071
64.2125
72.3506
81.1656
90.4589
100
-300
-300
-300
-300
-300
-300
-300
-300
-300
-300
100
90.3041
80.8506
71.865
63.5417
56.0328
49.4439
43.834
39.2218
35.595
32.9229
31.1686
30.3005
30.3005
31.1686
32.9229
35.595
39.2218
43.834
49.4439
56.0328
63.5417
71.865
80.8506
90.3041
100
-300
-300
-300
-300
-300
-300
-300
-300
-300
-300
-300
-300
-300
-300
100
91.0447
82.3015
73.9672
66.2105
59.1627
52.9137
47.5137
42.9798
39.3053
36.4722
34.4626
33.2679
32.8955
33.3704
34.7333
37.0344
40.325
44.6452
50.0124
56.4092
63.7743
71.9972
80.9176
90.3311
100
-300
-300
-300
-300
-300
-300
-300
-300
-300
-300
100
90.2107
80.6661
71.594
63.1905
55.6094
48.957
43.2932
38.6366
34.975
32.2772
30.506
29.6296
29.6296
30.506
32.2772
34.975
38.6366
43.2932
48.957
55.6094
63.1905
71.594
80.6661
90.2107
100
-300
-300
-300
-300
-300
-300
-300
-300
-300
-300
-300
-300
-300
-300
100
91.2446
82.6923
74.5315
66.9228
59.9906
53.819
48.4545
43.9121
40.1861
37.2627
35.1307
33.7913
33.2627
33.5809
34.7967
36.9688
40.1547
44.3987
49.7207
56.1039
63.4858
71.7532
80.741
90.2384
100
-300
-300
-300
-300
-300
-300
-300
-300
-300
-300
100
90.146
80.5383
71.4063
62.9472
55.316
48.6197
42.9185
38.2312
34.5454
31.8298
30.047
29.1648
29.1648
30.047
31.8298
34.5454
38.2312
42.9185
48.6197
55.316
62.9472
71.4063
80.5383
90.146
100
-300
-300
-300
-300
-300
-300
-300
-300
-300
-300
-300
-300
-300
-300
100
91.5607
83.3121
75.4305
68.0653
61.3308
55.3029
50.0217
45.4988
41.729
38.7027
36.4183
34.8902
34.152
34.255
35.2637
37.2477
40.2725
44.3879
49.6165
55.9428
63.3035
71.5825
80.6099
90.1674
100
-300
-300
-300
-300
-300
-300
-300
-300
-300
-300
100
90.1022
80.4518
71.2792
62.7825
55.1174
48.3915
42.6649
37.9568
34.2547
31.5271
29.7364
28.8503
28.8503
29.7364
31.5271
34.2547
37.9568
42.6649
48.3915
55.1174
62.7825
71.2792
80.4518
90.1022
100
-300
-300
-300
-300
-300
-300
-300
-300
-300
-300
-300
-300
-300
-300
100
92.0001
84.175
76.6854
69.6662
63.2184
57.4064
52.261
47.7875
43.9792
40.8312
38.3539
36.5799
35.5645
35.3804
36.1103
37.8379
40.6383
44.5678
49.6529
55.8795
63.1843
71.4488
80.4977
90.1039
100
-300
-300
-300
-300
-300
-300
-300
-300
-300
-300
100
90.0732
80.3946
71.1951
62.6737
54.9861
48.2405
42.4973
37.7754
34.0625
31.327
29.531
28.6423
28.6423
29.531
31.327
34.0625
37.7754
42.4973
48.2405
54.9861
62.6737
71.1951
80.3946
90.0732
100
-300
-300
-300
-300
-300
-300
-300
-300
-300
-300
-300
-300
-300
-300
100
92.57
85.2956
78.3187
71.7565
65.6934
60.1786
55.2293
50.8405
46.9995
43.7047
40.981
38.8872
37.5098
36.9509
37.3171
38.7093
41.2143
44.8953
49.783
55.8662
63.0824
71.3118
80.374
90.0315
100
-300
-300
-300
-300
-300
-300
-300
-300
-300
-300
100
90.0545
80.3576
71.1409
62.6033
54.9013
48.143
42.389
37.6583
33.9384
31.1977
29.3984
28.508
28.508
29.3984
31.1977
33.9384
37.6583
42.389
48.143
54.9013
62.6033
71.1409
80.3576
90.0545
100
-300
-300
-300
-300
-300
-300
-300
-300
-300
-300
-300
-300
-300
-300
100
93.276
86.6855
80.3492
74.3638
68.794
63.6698
58.9898
54.7309
50.8673
47.3946
44.3548
41.8452
39.9987
38.9588
38.8623
39.8301
41.9608
45.3247
49.9571
55.8504
62.9452
71.1232
80.2009
89.9289
100
-300
-300
-300
-300
-300
-300
-300
-300
-300
-300
100
90.0427
80.3343
71.1066
62.5589
54.8478
48.0814
42.3206
37.5843
33.86
31.116
29.3146
28.4232
28.4232
29.3146
31.116
33.86
37.5843
42.3206
48.0814
54.8478
62.5589
71.1066
80.3343
90.0427
100
-300
-300
-300
-300
-300
-300
-300
-300
-300
-300
-300
-300
-300
-300
100
94.1198
88.3494
82.7863
77.5048
72.548
67.9235
63.6047
59.5405
55.6762
51.9899
48.5392
45.4851
43.0336
41.3854
40.7137
41.1595
42.8313
45.8045
50.1185
55.7706
62.7084
70.8206
79.9261
89.7655
100
-300
-300
-300
-300
-300
-300
-300
-300
-300
-300
100
90.0354
80.3199
71.0854
62.5315
54.8147
48.0435
42.2784
37.5386
33.8116
31.0657
29.2629
28.3709
28.3709
29.2629
31.0657
33.8116
37.5386
42.2784
48.0435
54.8147
62.5315
71.0854
80.3199
90.0354
100
-300
-300
-300
-300
-300
-300
-300
-300
-300
-300
-300
-300
-300
-300
100
95.0977
90.2808
85.6233
81.1771
76.9634
72.9661
69.1286
65.3578
61.5433
57.6077
53.6066
49.8258
46.594
44.1884
42.8194
42.6421
43.7686
46.2748
50.202
55.554
62.2909
70.3187
79.4726
89.4927
100
-300
-300
-300
-300
-300
-300
-300
-300
-300
-300
100
90.031
80.3112
71.0727
62.515
54.7948
48.0205
42.2529
37.5111
33.7824
31.0353
29.2318
28.3393
28.3393
29.2318
31.0353
33.7824
37.5111
42.2529
48.0205
54.7948
62.515
71.0727
80.3112
90.031
100
-300
-300
-300
-300
-300
-300
-300
-300
-300
-300
-300
-300
-300
-300
100
96.1986
92.4587
88.832
85.3502
82.0161
78.7932
75.5957
72.2771
68.6296
64.4302
59.64
54.8544
50.6153
47.2862
45.0985
44.2035
44.7038
46.6677
50.1347
55.1159
61.5906
69.4985
78.719
89.0251
100
-300
-300
-300
-300
-300
-300
-300
-300
-300
-300
100
90.0284
80.3061
71.0651
62.5052
54.783
48.007
42.2379
37.4948
33.7652
31.0174
29.2134
28.3207
28.3207
29.2134
31.0173
33.7652
37.4948
42.2379
48.007
54.783
62.5052
71.0651
80.3061
90.0284
100
-300
-300
-300
-300
-300
-300
-300
-300
-300
-300
-300
-300
-300
-300
100
97.4027
94.8446
92.3575
89.9576
87.6365
85.3497
82.9967
80.387
77.1795
72.8176
66.7236
60.479
54.9518
50.5384
47.4335
45.7491
45.5588
46.9126
49.8427
54.3656
60.4851
68.1937
77.4638
88.1918
100
-300
-300
-300
-300
-300
-300
-300
-300
-300
-300
100
90.0269
80.3031
71.0608
62.4996
54.7762
47.9992
42.2292
37.4854
33.7553
31.007
29.2028
28.3099
28.3099
29.2027
31.007
33.7552
37.4854
42.2292
47.9992
54.7762
62.4996
71.0608
80.3031
90.0269
100
-300
-300
-300
-300
-300
-300
-300
-300
-300
-300
-300
-300
-300
-300
100
98.6816
97.3822
96.1165
94.8907
93.696
92.5003
91.2276
89.7108
87.5535
83.6899
74.841
66.4075
59.3201
53.7298
49.6715
47.1711
46.2548
46.946
49.2631
53.2217
58.8451
66.1857
75.3639
86.6015
100
-300
-300
-300
-300
-300
-300
-300
-300
-300
-300
100
90.026
80.3015
71.0583
62.4964
54.7724
47.9948
42.2243
37.4801
33.7497
31.0012
29.1968
28.3038
28.3038
29.1967
31.0011
33.7496
37.4801
42.2243
47.9947
54.7724
62.4964
71.0583
80.3014
90.026
100
-300
-300
-300
-300
-300
-300
-300
-300
-300
-300
-300
-300
-300
-300
100
100
100
100
100
100
100
100
100
100
100
83.216
71.8715
63.2469
56.5814
51.6439
48.365
46.7266
46.7262
48.3636
51.6417
56.5783
63.2431
71.8674
83.2126
100
100
100
100
100
100
100
100
100
100
100
100
90.0256
80.3005
71.057
62.4946
54.7703
47.9924
42.2216
37.4772
33.7466
30.9979
29.1934
28.3005
28.3005
29.1934
30.9979
33.7465
37.4771
42.2215
47.9923
54.7702
62.4945
71.0569
80.3005
90.0255
100
-300
-300
-300
-300
-300
-300
-300
-300
-300
-300
-300
-300
-300
-300
-300
-300
-300
-300
-300
-300
-300
-300
-300
-300
100
86.6015
75.3631
66.1836
58.8417
53.2168
49.2569
46.9386
46.2463
47.1616
49.6612
53.7189
59.3088
66.3962
74.8302
83.6803
87.5446
89.7026
91.22
92.4934
93.6901
94.8857
96.1127
97.3796
98.6803
100
100
90.0253
80.3
71.0562
62.4937
54.7691
47.991
42.2202
37.4756
33.7449
30.9962
29.1916
28.2986
28.2986
29.1916
30.9961
33.7447
37.4755
42.22
47.9908
54.7689
62.4935
71.0561
80.2999
90.0253
100
-300
-300
-300
-300
-300
-300
-300
-300
-300
-300
-300
-300
-300
-300
-300
-300
-300
-300
-300
-300
-300
-300
-300
-300
100
88.1892
77.4584
68.1855
60.4741
54.3521
49.8269
46.8948
45.5393
45.7283
47.4116
50.5158
54.9289
60.4561
66.7012
72.7961
77.159
80.3678
82.979
85.3337
87.6226
89.9461
92.3486
94.8386
97.3996
100
100
90.0252
80.2998
71.0558
62.4932
54.7685
47.9903
42.2194
37.4748
33.744
30.9952
29.1906
28.2976
28.2976
29.1905
30.995
33.7437
37.4745
42.219
47.99
54.7681
62.4928
71.0556
80.2996
90.0251
100
-300
-300
-300
-300
-300
-300
-300
-300
-300
-300
-300
-300
-300
-300
-300
-300
-300
-300
-300
-300
-300
-300
-300
-300
100
89.0194
78.7077
69.4818
61.5688
55.0895
50.1043
46.6339
44.6671
44.1646
45.0579
47.2446
50.5732
54.8123
59.5985
64.39
68.5911
72.2408
75.5622
78.763
81.9898
85.3284
88.8152
92.4473
96.1928
100
100
90.0251
80.2996
71.0556
62.4929
54.7682
47.99
42.219
37.4743
33.7435
30.9947
29.19
28.297
28.2969
29.1898
30.9943
33.7429
37.4737
42.2183
47.9892
54.7675
62.4923
71.0551
80.2992
90.0249
100
-300
-300
-300
-300
-300
-300
-300
-300
-300
-300
-300
-300
-300
-300
-300
-300
-300
-300
-300
-300
-300
-300
-300
-300
100
89.4824
79.4521
70.2886
62.2518
55.5069
50.1478
46.2147
43.7037
42.5734
42.7479
44.1151
46.5199
49.7517
53.5336
57.5366
61.4751
65.2935
69.0691
72.9126
76.9169
81.1385
85.5935
90.2606
95.0875
100
100
90.0251
80.2996
71.0555
62.4928
54.768
47.9898
42.2187
37.474
33.7431
30.9943
29.1896
28.2965
28.2964
29.1892
30.9936
33.7422
37.4729
42.2175
47.9884
54.7667
62.4915
71.0545
80.2988
90.0247
100
-300
-300
-300
-300
-300
-300
-300
-300
-300
-300
-300
-300
-300
-300
-300
-300
-300
-300
-300
-300
-300
-300
-300
-300
100
89.7475
79.8907
70.7686
62.6412
55.6896
50.0255
45.7014
42.7199
41.0417
40.5912
41.2599
42.9067
45.3583
48.4141
51.8681
55.5593
59.4303
63.5028
67.8318
72.4683
77.4387
82.7352
88.3146
94.1022
100
100
90.0251
80.2995
71.0555
62.4927
54.7679
47.9896
42.2186
37.4738
33.7429
30.994
29.1892
28.296
28.2958
29.1885
30.9927
33.7412
37.4718
42.2162
47.9872
54.7655
62.4905
71.0536
80.2982
90.0244
100
-300
-300
-300
-300
-300
-300
-300
-300
-300
-300
-300
-300
-300
-300
-300
-300
-300
-300
-300
-300
-300
-300
-300
-300
100
89.8988
80.1414
71.036
62.8324
55.7146
49.8013
45.152
41.7743
39.6329
38.6573
38.7488
39.7865
41.6332
44.1456
47.1909
50.6718
54.5465
58.8194
63.5165
68.6606
74.2532
80.2639
86.6274
93.2465
100
100
90.025
80.2995
71.0554
62.4926
54.7679
47.9895
42.2184
37.4736
33.7426
30.9936
29.1887
28.2953
28.2949
29.1873
30.9914
33.7396
37.47
42.2143
47.9851
54.7635
62.4886
71.0521
80.2971
90.0238
100
-300
-300
-300
-300
-300
-300
-300
-300
-300
-300
-300
-300
-300
-300
-300
-300
-300
-300
-300
-300
-300
-300
-300
-300
100
89.9821
80.2765
71.1687
62.8974
55.6436
49.5276
44.6122
40.9088
38.3864
36.9815
36.6072
37.1623
38.5402
40.6387
43.3713
46.6796
50.5386
54.9505
59.9276
65.4751
71.5755
78.179
85.2005
92.5219
100
100
90.025
80.2995
71.0554
62.4926
54.7678
47.9894
42.2182
37.4733
33.7422
30.993
29.1879
28.2942
28.2934
29.1855
30.9891
33.7369
37.4669
42.2109
47.9817
54.7601
62.4855
71.0495
80.2952
90.0228
100
-300
-300
-300
-300
-300
-300
-300
-300
-300
-300
-300
-300
-300
-300
-300
-300
-300
-300
-300
-300
-300
-300
-300
-300
100
90.0246
80.3411
71.2191
62.8873
55.5221
49.2431
44.1138
40.1484
37.3201
35.5723
34.8295
35.0076
36.0238
37.8054
40.2971
43.4667
47.304
51.8142
57.0043
62.8687
69.3762
76.4616
84.0227
91.923
100
100
90.025
80.2994
71.0554
62.4925
54.7676
47.9892
42.2179
37.4729
33.7415
30.9921
29.1866
28.2924
28.2911
29.1825
30.9854
33.7325
37.4619
42.2054
47.9759
54.7544
62.4803
71.0451
80.2921
90.0212
100
-300
-300
-300
-300
-300
-300
-300
-300
-300
-300
-300
-300
-300
-300
-300
-300
-300
-300
-300
-300
-300
-300
-300
-300
100
90.0426
80.3636
71.2214
62.8366
55.3812
48.9727
43.6748
39.5032
36.4348
34.4192
33.3905
33.2782
34.0178
35.5579
37.8649
40.9251
44.7405
49.3211
54.6723
60.7824
67.6106
75.0796
83.0733
91.4398
100
100
90.025
80.2994
71.0553
62.4924
54.7675
47.9889
42.2175
37.4722
33.7405
30.9906
29.1845
28.2896
28.2873
29.1777
30.9794
33.7253
37.4536
42.1963
47.9664
54.745
62.4716
71.0379
80.2868
90.0184
100
-300
-300
-300
-300
-300
-300
-300
-300
-300
-300
-300
-300
-300
-300
-300
-300
-300
-300
-300
-300
-300
-300
-300
-300
100
90.0461
80.3617
71.197
62.7669
55.2395
48.7301
43.3019
38.9717
35.7192
33.4989
32.2525
31.9203
32.4513
33.8091
35.9761
38.9516
42.7476
47.3788
52.8509
59.1487
66.2247
73.9927
82.3256
91.0589
100
100
90.025
80.2994
71.0552
62.4922
54.7672
47.9884
42.2168
37.4711
33.7389
30.9882
29.1812
28.2851
28.2813
29.17
30.9698
33.7139
37.4404
42.1817
47.951
54.7298
62.4575
71.026
80.2782
90.0139
100
-300
-300
-300
-300
-300
-300
-300
-300
-300
-300
-300
-300
-300
-300
-300
-300
-300
-300
-300
-300
-300
-300
-300
-300
100
90.0409
80.3453
71.1582
62.6902
55.1061
48.5195
42.993
38.5436
35.1533
32.7802
31.3718
30.8764
31.2525
32.4752
34.5376
37.4492
41.2291
45.8965
51.4582
57.897
65.1611
73.1574
81.7503
90.7656
100
100
90.025
80.2993
71.055
62.492
54.7668
47.9878
42.2157
37.4695
33.7364
30.9847
29.1762
28.2782
28.2721
29.158
30.9549
33.6959
37.4196
42.1586
47.9266
54.7054
62.4349
71.007
80.2644
90.0066
100
-300
-300
-300
-300
-300
-300
-300
-300
-300
-300
-300
-300
-300
-300
-300
-300
-300
-300
-300
-300
-300
-300
-300
-300
100
90.0298
80.3194
71.1106
62.6108
54.9829
48.3386
42.7396
38.2034
34.7129
32.2289
30.703
30.0892
30.3531
31.4775
33.4636
36.328
40.0956
44.7889
50.4161
56.9591
64.3629
72.5297
81.3176
90.5449
100
100
90.0249
80.2992
71.0548
62.4916
54.7661
47.9868
42.2141
37.4671
33.7328
30.9794
29.1686
28.2677
28.2581
29.1399
30.9321
33.6683
37.3874
42.1227
47.8885
54.6672
62.3993
70.9768
80.2425
89.9951
100
-300
-300
-300
-300
-300
-300
-300
-300
-300
-300
-300
-300
-300
-300
-300
-300
-300
-300
-300
-300
-300
-300
-300
-300
100
90.0135
80.285
71.0544
62.5277
54.8659
48.1794
42.5291
37.932
34.3715
31.8101
30.202
29.5052
29.6901
30.7451
32.6771
35.508
39.2666
43.9784
49.653
56.2715
63.7771
72.0687
80.9996
90.3826
100
100
90.0248
80.299
71.0545
62.4911
54.7653
47.9853
42.2118
37.4635
33.7275
30.9716
29.1575
28.2524
28.2374
29.1129
30.898
33.6267
37.3387
42.0681
47.8301
54.6083
62.3441
70.9299
80.2082
89.977
100
-300
-300
-300
-300
-300
-300
-300
-300
-300
-300
-300
-300
-300
-300
-300
-300
-300
-300
-300
-300
-300
-300
-300
-300
100
89.9907
80.2395
70.9857
62.4349
54.7467
48.0305
42.3458
37.7088
34.1027
31.4905
29.8282
29.0761
29.2081
30.2163
32.1116
34.9196
38.6725
43.3977
49.1059
55.7783
63.3567
71.7375
80.771
90.266
100
100
90.0247
80.2988
71.0541
62.4903
54.764
47.9833
42.2086
37.4586
33.72
30.9605
29.1416
28.2302
28.2074
29.0736
30.8481
33.5654
37.2664
41.9863
47.7421
54.519
62.2597
70.8577
80.1552
89.9489
100
-300
-300
-300
-300
-300
-300
-300
-300
-300
-300
-300
-300
-300
-300
-300
-300
-300
-300
-300
-300
-300
-300
-300
-300
100
89.9588
80.1774
70.8966
62.322
54.6128
47.8768
42.1718
37.5124
33.8808
31.2397
29.5455
28.7601
28.8595
29.8385
31.7108
34.5047
38.2546
42.9898
48.7219
55.4321
63.0615
71.5049
80.6105
90.184
100
100
90.0246
80.2985
71.0535
62.4893
54.7623
47.9805
42.2042
37.4517
33.7095
30.9451
29.1194
28.1991
28.1651
29.0176
30.7765
33.477
37.1611
41.8663
47.6118
54.3855
62.1326
70.7481
80.0743
89.9058
100
-300
-300
-300
-300
-300
-300
-300
-300
-300
-300
-300
-300
-300
-300
-300
-300
-300
-300
-300
-300
-300
-300
-300
-300
100
89.9126
80.0894
70.7744
62.1743
54.4476
47.7003
41.9875
37.3212
33.6815
31.0299
29.3226
28.5219
28.6051
29.5689
31.429
34.2157
37.9653
42.7085
48.4576
55.194
62.8585
71.3451
80.5001
90.1276
100
100
90.0244
80.2981
71.0528
62.488
54.7601
47.9768
42.1983
37.4424
33.6954
30.9241
29.0891
28.1563
28.1065
28.9397
30.6761
33.3519
37.011
41.6934
47.4221
54.1892
61.9437
70.5835
79.9518
89.8402
100
-300
-300
-300
-300
-300
-300
-300
-300
-300
-300
-300
-300
-300
-300
-300
-300
-300
-300
-300
-300
-300
-300
-300
-300
100
89.8448
79.9619
70.6008
61.9708
54.2293
47.4789
41.7708
37.1129
33.4818
30.8367
29.1327
28.3322
28.413
29.3731
31.2299
34.0154
37.7672
42.5173
48.2787
55.0333
62.7218
71.2375
80.4258
90.0897
100
100
90.0242
80.2975
71.0518
62.4863
54.7571
47.972
42.1905
37.4302
33.6768
30.8963
29.0486
28.0991
28.0275
28.8339
30.5386
33.179
36.8012
41.4492
47.1508
53.9045
61.6661
70.3388
79.7676
89.7409
100
-300
-300
-300
-300
-300
-300
-300
-300
-300
-300
-300
-300
-300
-300
-300
-300
-300
-300
-300
-300
-300
-300
-300
-300
100
89.7439
79.7741
70.3499
61.6833
53.9298
47.1864
41.4975
36.8647
33.2597
30.6383
28.9536
28.1673
28.258
29.2245
31.0857
33.875
37.6314
42.3882
48.1591
54.9266
62.6313
71.1664
80.3768
90.0647
100
100
90.0239
80.2969
71.0505
62.4841
54.7534
47.9659
42.1806
37.4147
33.6529
30.8604
28.9961
28.0242
27.9236
28.6935
30.3546
32.9452
36.5143
41.1107
46.7693
53.498
61.263
69.9772
79.4914
89.5903
100
-300
-300
-300
-300
-300
-300
-300
-300
-300
-300
-300
-300
-300
-300
-300
-300
-300
-300
-300
-300
-300
-300
-300
-300
100
89.5921
79.4954
69.9841
61.2736
53.5136
46.7912
41.1402
36.553
32.9943
30.4152
28.7662
28.0085
28.1207
29.1029
30.9753
33.7731
37.5368
42.3007
48.0795
54.8564
62.5722
71.1202
80.3451
90.0486
100
100
90.0236
80.2961
71.049
62.4814
54.7489
47.9583
42.1684
37.3953
33.6229
30.8153
28.9298
27.929
27.7904
28.5122
30.1144
32.6366
36.1308
40.6513
46.2427
52.9257
60.6832
69.4455
79.0763
89.3602
100
-300
-300
-300
-300
-300
-300
-300
-300
-300
-300
-300
-300
-300
-300
-300
-300
-300
-300
-300
-300
-300
-300
-300
-300
100
89.3613
79.0788
69.4497
60.6896
52.9351
46.2558
40.669
36.1539
32.6659
30.1505
28.5554
27.8409
27.9863
28.9932
30.8836
33.6944
37.4679
42.2398
48.026
54.8102
62.5339
71.0905
80.3248
90.0383
100
100
90.0232
80.2952
71.0473
62.4783
54.7435
47.9493
42.1537
37.3719
33.5866
30.7602
28.8482
27.8111
27.6243
28.284
29.8092
32.2397
35.6304
40.0419
45.5299
52.1327
59.8577
68.6654
78.4483
89.0026
100
-300
-300
-300
-300
-300
-300
-300
-300
-300
-300
-300
-300
-300
-300
-300
-300
-300
-300
-300
-300
-300
-300
-300
-300
100
89.0033
78.4498
68.6679
59.8615
52.1382
45.5376
40.0522
35.6439
32.2568
29.8302
28.3091
27.6537
27.8445
28.8851
30.8
33.6282
37.4142
42.1953
47.9887
54.7792
62.5089
71.0715
80.3119
90.0318
100
100
90.0228
80.2941
71.0453
62.4747
54.7373
47.9388
42.1365
37.3444
33.5437
30.6947
28.7507
27.6693
27.4229
28.0049
29.4319
31.7431
34.9948
39.2534
44.5865
51.0536
58.6956
67.5214
77.4841
88.4287
100
-300
-300
-300
-300
-300
-300
-300
-300
-300
-300
-300
-300
-300
-300
-300
-300
-300
-300
-300
-300
-300
-300
-300
-300
100
88.4291
77.485
67.5229
58.6978
51.0568
44.591
39.2593
35.0025
31.7529
29.4439
28.0192
27.4397
27.6884
28.7718
30.7174
33.5674
37.3686
42.1603
47.9614
54.7577
62.4922
71.0591
80.3037
90.0277
100
100
90.0223
80.2931
71.0432
62.4709
54.7305
47.9272
42.1172
37.3132
33.4946
30.6194
28.6377
27.5038
27.1861
27.6737
28.9797
31.1403
34.2112
38.2623
43.3712
49.6182
57.0836
65.8461
75.9722
87.4556
100
-300
-300
-300
-300
-300
-300
-300
-300
-300
-300
-300
-300
-300
-300
-300
-300
-300
-300
-300
-300
-300
-300
-300
-300
100
87.4558
75.9727
65.8469
57.0848
49.62
43.3737
38.2657
34.2155
31.1457
28.9864
27.6818
27.1955
27.5144
28.6495
30.6321
33.5079
37.3267
42.1305
47.9398
54.7419
62.4807
71.051
80.2985
90.0251
100
100
90.022
80.2922
71.0413
62.4671
54.7235
47.9149
42.0963
37.2791
33.4403
30.5354
28.5109
27.3167
26.9163
27.2933
28.455
30.4324
33.2773
37.0582
41.8567
47.7661
54.8999
63.4125
73.543
85.6553
100
-300
-300
-300
-300
-300
-300
-300
-300
-300
-300
-300
-300
-300
-300
-300
-300
-300
-300
-300
-300
-300
-300
-300
-300
100
85.6554
73.5433
63.4129
54.9006
47.7671
41.858
37.0601
33.2796
30.4354
28.4587
27.2977
26.9214
27.3225
28.5173
30.5424
33.4476
37.2865
42.1036
47.9218
54.7298
62.4725
71.0455
80.2951
90.0235
100
100
90.0218
80.2916
71.0397
62.4637
54.7168
47.9026
42.0749
37.2433
33.3827
30.4452
28.3734
27.1123
26.6192
26.871
27.8672
29.6308
32.2056
35.6524
40.0463
45.4768
52.0594
59.9748
69.5907
81.8758
100
100
100
100
100
100
100
100
100
100
100
100
100
100
100
100
100
100
100
100
100
100
100
100
100
100
81.8759
69.5908
59.9751
52.0598
45.4773
40.047
35.6534
32.2069
29.6324
27.8692
26.8734
26.622
27.1154
28.3768
30.4489
33.3866
37.2473
42.0788
47.9063
54.7202
62.4666
71.042
80.2932
90.0226
100
100
90.022
80.2917
71.0392
62.4615
54.7115
47.8916
42.0545
37.2079
33.3242
30.3522
28.23
26.897
26.3039
26.4192
27.2332
28.7584
31.0264
34.0846
37.9907
42.8091
48.6104
55.472
63.4689
72.5612
81.8758
85.6553
87.4555
88.4286
89.0024
89.3598
89.5895
89.7396
89.838
89.9019
89.9422
89.9658
89.9767
89.9767
89.9658
89.9422
89.9019
89.838
89.7396
89.5895
89.3598
89.0024
88.4286
87.4555
85.6553
81.8758
72.5612
63.469
55.4722
48.6106
42.8094
37.9911
34.0852
31.0271
28.7592
27.2343
26.4204
26.3053
26.8987
28.2318
30.3541
33.3263
37.21
42.0566
47.8935
54.7132
62.4631
71.0404
80.2925
90.0224
100
100
90.0228
80.293
71.0405
62.4618
54.7089
47.8837
42.0374
37.1758
33.2687
30.2612
28.0871
26.6796
25.9822
25.9545
26.5763
27.8477
29.7862
32.4216
35.7891
39.9203
44.8317
50.5026
56.8244
63.4689
69.5907
73.5429
75.9721
77.4839
78.4479
79.0756
79.49
79.7652
79.9475
80.0669
80.1426
80.187
80.2074
80.2074
80.187
80.1426
80.0669
79.9475
79.7652
79.49
79.0756
78.4479
77.4839
75.9721
73.5429
69.5907
63.4689
56.8244
50.5027
44.8318
39.9205
35.7893
32.4219
29.7865
27.8481
26.5768
25.9551
25.9829
26.6805
28.088
30.2623
33.2697
37.1769
42.0385
47.8847
54.7098
62.4625
71.0411
80.2934
90.023
100
100
90.0247
80.2966
71.045
62.4662
54.7115
47.8818
42.027
37.151
33.2209
30.1786
27.9527
26.4708
25.6686
25.4967
25.924
26.9378
28.5406
30.7444
33.5626
36.9984
41.0297
45.5847
50.5026
55.472
59.9748
63.4124
65.8459
67.5211
68.6649
69.4445
69.9753
70.3354
70.5776
70.7377
70.8401
70.9004
70.9283
70.9283
70.9004
70.8401
70.7377
70.5776
70.3354
69.9753
69.4445
68.6649
67.5211
65.8459
63.4124
59.9748
55.472
50.5027
45.5847
41.0297
36.9985
33.5627
30.7446
28.5407
26.938
25.9243
25.497
25.669
26.4712
27.9532
30.1791
33.2215
37.1515
42.0275
47.8823
54.7119
62.4666
71.0453
80.2968
90.0248
100
100
90.0284
80.3037
71.0549
62.4776
54.7226
47.8899
42.028
37.1391
33.1877
30.1122
27.8368
26.2831
25.3795
25.0677
25.3061
26.0696
27.3469
29.1341
31.4269
34.209
37.4385
41.0297
44.8317
48.6103
52.0594
54.8998
57.0834
58.6952
59.8571
60.6819
61.2607
61.6621
61.9365
62.1202
62.2387
62.3089
62.3416
62.3416
62.3089
62.2387
62.1202
61.9365
61.6621
61.2607
60.6819
59.8571
58.6952
57.0834
54.8998
52.0594
48.6104
44.8317
41.0297
37.4385
34.209
31.4269
29.1342
27.347
26.0697
25.3062
25.0679
25.3797
26.2833
27.837
30.1124
33.188
37.1394
42.0283
47.8901
54.7229
62.4778
71.0551
80.3038
90.0285
100
100
90.0351
80.3167
71.0734
62.5003
54.7475
47.9141
42.0475
37.1481
33.178
30.0724
27.7514
26.131
25.1328
24.6904
24.7523
25.2825
26.2576
27.6611
29.4758
31.6745
34.209
36.9984
39.9203
42.8091
45.4767
47.766
49.618
51.0532
52.132
52.9243
53.4955
53.9001
54.1813
54.372
54.4961
54.5702
54.6047
54.6047
54.5702
54.4961
54.372
54.1813
53.9001
53.4955
52.9243
52.132
51.0532
49.618
47.766
45.4767
42.8091
39.9203
36.9984
34.209
31.6745
29.4758
27.6611
26.2577
25.2826
24.7523
24.6904
25.1329
26.1311
27.7515
30.0726
33.1781
37.1482
42.0476
47.9142
54.7476
62.5004
71.0735
80.3168
90.0352
100
100
90.0464
80.3388
71.1053
62.5404
54.7937
47.9633
42.0955
37.1891
33.2042
30.073
27.7118
26.0319
24.9487
24.3885
24.2915
24.6124
25.3178
26.3815
27.7783
29.4758
31.4269
33.5626
35.789
37.9907
40.0462
41.8565
43.371
44.5861
45.5291
46.2413
46.7668
47.1463
47.4142
47.598
47.7188
47.7915
47.8255
47.8255
47.7915
47.7188
47.598
47.4142
47.1463
46.7668
46.2413
45.5291
44.5861
43.371
41.8565
40.0462
37.9907
35.789
33.5626
31.4269
29.4758
27.7783
26.3815
25.3178
24.6124
24.2916
24.3886
24.9488
26.0319
27.7119
30.0731
33.2042
37.1891
42.0955
47.9634
54.7938
62.5405
71.1053
80.3388
90.0464
100
100
90.0647
80.3747
71.1575
62.6071
54.8722
48.0501
42.1861
37.2777
33.283
30.132
27.7376
26.0069
24.8503
24.1879
23.9528
24.0922
24.565
25.3382
26.3815
27.6611
29.1341
30.7444
32.4216
34.0846
35.6524
37.0581
38.2621
39.253
40.0411
40.65
41.1082
41.4448