# vtk DataFile Version 2.0
LBE two cylinders
ASCII
DATASET STRUCTURED_POINTS
DIMENSIONS 76 76 1
ASPECT_RATIO 1 1 1
ORIGIN 0 0 0
POINT_DATA 5776
SCALARS temp double 1
LOOKUP_TABLE default
100
100
100
100
100
100
100
100
100
100
100
100
100
100
100
100
100
100
100
100
100
100
100
100
100
100
-300
-300
-300
-300
-300
-300
-300
-300
-300
-300
-300
-300
-300
-300
100
100
100
100
100
100
100
100
100
100
100
100
100
100
100
100
100
100
100
100
100
100
100
100
100
100
-300
-300
-300
-300
-300
-300
-300
-300
-300
-300
100
98.9677
97.9575
96.9901
96.0842
95.2555
94.5163
93.8755
93.3386
92.9087
92.5867
92.3725
92.2657
92.2657
92.3725
92.5867
92.9087
93.3386
93.8755
94.5163
95.2555
96.0842
96.9901
97.9575
98.9677
100
-300
-300
-300
-300
-300
-300
-300
-300
-300
-300
-300
-300
-300
-300
100
98.9707
97.9633
96.9985
96.0948
95.268
94.5303
93.8904
93.3539
92.924
92.6015
92.3866
92.2786
92.2774
92.3828
92.5956
92.9162
93.3448
93.8804
94.5202
95.2584
96.0863
96.9915
97.9584
98.9682
100
-300
-300
-300
-300
-300
-300
-300
-300
-300
-300
100
97.9565
95.9566
94.0415
92.2482
90.6078
89.1445
87.8759
86.8131
85.962
85.3246
84.9007
84.6891
84.6891
84.9007
85.3246
85.962
86.8131
87.8759
89.1445
90.6078
92.2482
94.0415
95.9566
97.9565
100
-300
-300
-300
-300
-300
-300
-300
-300
-300
-300
-300
-300
-300
-300
100
97.9631
95.9695
94.0603
92.2721
90.6358
89.1757
87.9092
86.8474
85.9962
85.3578
84.9321
84.7181
84.7153
84.9237
85.3444
85.9787
86.8268
87.8869
89.1531
90.6142
92.2529
94.0448
95.9586
97.9575
100
-300
-300
-300
-300
-300
-300
-300
-300
-300
-300
100
96.9861
94.0365
91.212
88.5671
86.1476
83.9895
82.1185
80.5511
79.2958
78.3557
77.7305
77.4184
77.4184
77.7305
78.3557
79.2958
80.5511
82.1185
83.9895
86.1476
88.5671
91.212
94.0365
96.9861
100
-300
-300
-300
-300
-300
-300
-300
-300
-300
-300
-300
-300
-300
-300
100
96.9979
94.0595
91.2454
88.6096
86.1976
84.0451
82.1778
80.6121
79.3567
78.4149
77.7864
77.4701
77.465
77.7715
78.391
79.3255
80.5754
82.138
84.0047
86.1591
88.5754
91.2178
94.0401
96.9878
100
-300
-300
-300
-300
-300
-300
-300
-300
-300
-300
100
96.0739
92.2314
88.552
85.1066
81.9548
79.1435
76.7062
74.6643
73.0291
71.8044
70.9899
70.5835
70.5835
70.9899
71.8044
73.0291
74.6643
76.7062
79.1435
81.9548
85.1066
88.552
92.2314
96.0739
100
-300
-300
-300
-300
-300
-300
-300
-300
-300
-300
-300
-300
-300
-300
100
96.0933
92.2695
88.6072
85.1768
82.0373
79.2353
76.8042
74.7652
73.1299
71.9023
71.0825
70.669
70.6605
71.0577
71.8627
73.078
74.7044
76.7382
79.1684
81.9736
85.1202
88.5614
92.2373
96.0767
100
-300
-300
-300
-300
-300
-300
-300
-300
-300
-300
100
95.2337
90.5691
86.1023
81.9196
78.0933
74.6805
71.7217
69.2429
67.2578
65.7711
64.7823
64.2889
64.2889
64.7823
65.7711
67.2578
69.2429
71.7217
74.6805
78.0933
81.9196
86.1023
90.5691
95.2337
100
-300
-300
-300
-300
-300
-300
-300
-300
-300
-300
-300
-300
-300
-300
100
95.2647
90.6298
86.1904
82.0317
78.2252
74.8272
71.8782
69.4041
67.4188
65.9275
64.9303
64.4255
64.4119
64.8906
65.8641
67.3358
69.3067
71.7726
74.72
78.1231
81.9411
86.1171
90.5782
95.2381
100
-300
-300
-300
-300
-300
-300
-300
-300
-300
-300
100
94.4757
89.0692
83.8921
79.0441
74.6095
70.6538
67.2245
64.3516
62.0508
60.3277
59.1817
58.6098
58.6098
59.1817
60.3277
62.0508
64.3516
67.2245
70.6538
74.6095
79.0441
83.8921
89.0692
94.4757
100
-300
-300
-300
-300
-300
-300
-300
-300
-300
-300
-300
-300
-300
-300
100
94.5241
89.164
84.0296
79.219
74.8152
70.8829
67.4689
64.6033
62.3022
60.5719
59.4127
58.823
58.8018
59.3505
60.4726
62.1722
64.4507
67.3035
70.715
74.6553
79.0773
83.9147
89.0832
94.4824
100
-300
-300
-300
-300
-300
-300
-300
-300
-300
-300
100
93.8057
87.7434
81.9384
76.5025
71.5299
67.0946
63.2494
60.028
57.4483
55.5163
54.2313
53.5901
53.5901
54.2313
55.5163
57.4483
60.028
63.2494
67.0946
71.5299
76.5025
81.9384
87.7434
93.8057
100
-300
-300
-300
-300
-300
-300
-300
-300
-300
-300
-300
-300
-300
-300
100
93.8796
87.8884
82.1488
76.7701
71.8449
67.4453
63.6237
60.4136
57.8334
55.8903
54.5851
53.9164
53.8838
54.4894
55.7376
57.6334
60.1791
63.3694
67.1872
71.5992
76.5523
81.9723
87.7644
93.8156
100
-300
-300
-300
-300
-300
-300
-300
-300
-300
-300
100
93.2254
86.5953
80.2464
74.3013
68.863
64.0122
59.8068
56.2838
53.4624
51.3495
49.9441
49.2429
49.2429
49.9441
51.3495
53.4624
56.2838
59.8068
64.0122
68.863
74.3013
80.2464
86.5953
93.2254
100
-300
-300
-300
-300
-300
-300
-300
-300
-300
-300
-300
-300
-300
-300
100
93.3365
86.8132
80.5626
74.7037
69.3366
64.5397
60.37
56.864
54.042
51.9123
50.4765
49.7337
49.6845
50.3318
51.6815
53.7397
56.5095
59.9857
64.1499
68.9656
74.3748
80.2963
86.6259
93.2399
100
-300
-300
-300
-300
-300
-300
-300
-300
-300
-300
100
92.733
85.621
78.8107
72.4335
66.6
61.3967
56.8857
53.1067
50.0803
47.8138
46.3064
45.5542
45.5542
46.3064
47.8138
50.0803
53.1067
56.8857
61.3967
66.6
72.4335
78.8107
85.621
92.733
100
-300
-300
-300
-300
-300
-300
-300
-300
-300
-300
-300
-300
-300
-300
100
92.8972
85.9429
79.2779
73.0282
67.3
62.1767
57.7186
53.965
50.9378
48.6465
47.0938
46.2799
46.2066
46.8785
48.3031
50.4883
53.438
57.1474
61.5973
66.7489
72.5397
78.8823
85.6647
92.7537
100
-300
-300
-300
-300
-300
-300
-300
-300
-300
-300
100
92.3236
84.8109
77.617
70.8805
64.7184
59.222
54.457
50.4651
47.2683
44.8742
43.2819
42.4873
42.4873
43.2819
44.8742
47.2683
50.4651
54.457
59.222
64.7184
70.8805
77.617
84.8109
92.3236
100
-300
-300
-300
-300
-300
-300
-300
-300
-300
-300
-300
-300
-300
-300
100
92.5619
85.2783
78.2955
71.7445
65.7357
60.356
55.6682
51.7136
48.5157
46.0854
44.4269
43.5421
43.4347
44.1117
45.5828
47.8578
50.9425
54.8328
59.5089
64.9301
71.0306
77.7175
84.872
92.3523
100
-300
-300
-300
-300
-300
-300
-300
-300
-300
-300
100
91.99
84.1509
76.6444
69.6152
63.1854
57.4502
52.4782
48.3129
44.9773
42.4792
40.8178
39.9887
39.9887
40.8178
42.4792
44.9773
48.3129
52.4782
57.4502
63.1854
69.6152
76.6444
84.1509
91.99
100
-300
-300
-300
-300
-300
-300
-300
-300
-300
-300
-300
-300
-300
-300
100
92.3303
84.8183
77.6135
70.8496
64.6393
59.0715
54.2105
50.099
46.7619
44.2119
42.4551
41.496
41.3413
42.0008
43.4875
45.814
48.9883
53.0076
57.8523
63.4802
69.8226
76.7822
84.234
92.0289
100
-300
-300
-300
-300
-300
-300
-300
-300
-300
-300
100
91.7237
83.6239
75.8678
68.605
61.9613
56.0355
50.8983
46.5946
43.1481
40.567
38.8503
37.9937
37.9937
38.8503
40.567
43.1481
46.5945
50.8983
56.0355
61.9613
68.605
75.8678
83.6239
91.7237
100
-300
-300
-300
-300
-300
-300
-300
-300
-300
-300
-300
-300
-300
-300
100
92.2013
84.561
77.2289
70.3393
64.0051
58.3155
53.3353
49.108
45.6598
43.0053
41.1535
40.1124
39.8925
40.5084
41.977
44.3148
47.5328
51.6301
56.5879
62.3633
68.8851
76.0522
83.734
91.7748
100
-300
-300
-300
-300
-300
-300
-300
-300
-300
-300
100
91.5153
83.2115
75.2601
67.8144
61.0035
54.9285
49.6619
45.2499
41.7167
39.0707
37.3108
36.4326
36.4326
37.3108
39.0707
41.7167
45.2499
49.6619
54.9285
61.0035
67.8144
75.2601
83.2115
91.5153
100
-300
-300
-300
-300
-300
-300
-300
-300
-300
-300
-300
-300
-300
-300
100
92.1747
84.5056
77.1404
70.2114
63.8297
58.083
53.0354
48.7303
45.1951
42.4469
40.4982
39.3619
39.0543
39.5955
41.0085
43.3147
46.5292
50.6541
55.6718
61.5393
68.1836
75.4999
83.3529
91.5803
100
-300
-300
-300
-300
-300
-300
-300
-300
-300
-300
100
91.3554
82.8952
74.794
67.208
60.2688
54.0794
48.7137
44.2186
40.6189
37.923
36.1301
35.2354
35.2354
36.1301
37.923
40.6189
44.2186
48.7137
54.0794
60.2688
67.208
74.794
82.8952
91.3554
100
-300
-300
-300
-300
-300
-300
-300
-300
-300
-300
-300
-300
-300
-300
100
92.251
84.6531
77.3494
70.4674
64.1143
58.3744
53.3095
48.9621
45.3604
42.5242
40.471
39.2202
38.7956
39.2255
40.5405
42.7687
45.9307
50.0324
55.0585
60.9663
67.6816
75.0964
83.0704
91.4348
100
-300
-300
-300
-300
-300
-300
-300
-300
-300
-300
100
91.2352
82.6574
74.4435
66.7521
59.7165
53.4411
48.0008
43.4432
39.7935
37.0603
35.2424
34.3353
34.3353
35.2424
37.0603
39.7935
43.4432
48.0008
53.4411
59.7165
66.7521
74.4435
82.6574
91.2352
100
-300
-300
-300
-300
-300
-300
-300
-300
-300
-300
-300
-300
-300
-300
100
92.4317
85.0068
77.8606
71.1135
64.8662
59.1974
54.1648
49.8086
46.1574
43.2341
41.0624
39.6703
39.092
39.3667
40.535
42.6341
45.6916
49.7183
54.7022
60.6017
67.3417
74.8113
82.8651
91.3274
100
-300
-300
-300
-300
-300
-300
-300
-300
-300
-300
100
91.1466
82.4821
74.1852
66.4161
59.3094
52.9706
47.4754
42.8718
39.1852
36.4244
34.5882
33.6719
33.6719
34.5882
36.4244
39.1852
42.8718
47.4754
52.9706
59.3094
66.4161
74.1852
82.4821
91.1466
100
-300
-300
-300
-300
-300
-300
-300
-300
-300
-300
-300
-300
-300
-300
100
92.7196
85.5719
78.6821
72.1604
66.0986
60.5671
55.6174
51.2856
47.5992
44.5845
42.2728
40.7039
39.9259
39.9926
40.9582
42.8711
45.7679
49.666
54.5572
60.402
67.1249
74.6126
82.7142
91.2461
100
-300
-300
-300
-300
-300
-300
-300
-300
-300
-300
100
91.0826
82.3554
73.9986
66.1733
59.0153
52.6307
47.0957
42.4589
38.7457
35.9649
34.1155
33.1926
33.1926
34.1155
35.9649
38.7457
42.4589
47.0957
52.6307
59.0153
66.1733
73.9986
82.3554
91.0826
100
-300
-300
-300
-300
-300
-300
-300
-300
-300
-300
-300
-300
-300
-300
100
93.1176
86.3547
79.8235
73.6218
67.8292
62.5055
57.6923
53.419
49.7101
46.5945
44.1129
42.3208
41.2858
41.0813
41.779
43.4417
46.1167
49.8294
54.5766
60.3218
66.99
74.4656
82.5924
91.1777
100
-300
-300
-300
-300
-300
-300
-300
-300
-300
-300
100
91.0373
82.2657
73.8664
66.0013
58.8069
52.3898
46.8268
42.1664
38.4343
35.6394
33.7806
32.853
32.853
33.7806
35.6394
38.4343
42.1664
46.8268
52.3898
58.8069
66.0013
73.8664
82.2657
91.0373
100
-300
-300
-300
-300
-300
-300
-300
-300
-300
-300
-300
-300
-300
-300
100
93.6284
87.361
81.2946
75.512
70.0781
65.0385
60.4216
56.245
52.5263
49.2949
46.6028
44.5274
43.1638
42.612
42.9663
44.307
46.6938
50.1609
54.7112
60.3122
66.8909
74.3307
82.4703
91.1061
100
-300
-300
-300
-300
-300
-300
-300
-300
-300
-300
100
91.0058
82.2034
73.7745
65.8818
58.6621
52.2225
46.6399
41.9631
38.218
35.4133
33.5479
32.6171
32.6171
33.5479
35.4133
38.218
41.9631
46.6399
52.2225
58.6621
65.8818
73.7745
82.2034
91.0058
100
-300
-300
-300
-300
-300
-300
-300
-300
-300
-300
-300
-300
-300
-300
100
94.2535
88.5941
83.1017
77.8423
72.8637
68.1936
63.8421
59.8089
56.0966
52.7293
49.7717
47.3339
45.5513
44.5609
44.4852
45.4242
47.451
50.6085
54.9068
60.3184
66.7745
74.1601
82.3108
91.0109
100
-300
-300
-300
-300
-300
-300
-300
-300
-300
-300
100
90.9843
82.1609
73.7119
65.8004
58.5634
52.1085
46.5125
41.8247
38.0706
35.2592
33.3894
32.4563
32.4563
33.3894
35.2592
38.0706
41.8247
46.5125
52.1085
58.5634
65.8004
73.7119
82.1609
90.9843
100
-300
-300
-300
-300
-300
-300
-300
-300
-300
-300
-300
-300
-300
-300
100
94.9915
90.0524
85.2447
80.6167
76.1975
71.9943
67.9932
64.1659
60.4859
56.9582
53.658
50.7497
48.4325
46.8941
46.2907
46.7421
48.3331
51.1144
55.1023
60.2766
66.5761
73.8928
82.0637
90.863
100
-300
-300
-300
-300
-300
-300
-300
-300
-300
-300
100
90.9699
82.1325
73.6701
65.7459
58.4975
52.0323
46.4275
41.7321
37.9721
35.1562
33.2835
32.3489
32.3489
33.2834
35.1562
37.9721
41.7321
46.4274
52.0322
58.4975
65.7459
73.67
82.1325
90.9699
100
-300
-300
-300
-300
-300
-300
-300
-300
-300
-300
-300
-300
-300
-300
100
95.8372
91.7264
87.7122
83.8257
80.0778
76.454
72.9118
69.3823
65.7852
62.0719
58.3114
54.7764
51.7738
49.5589
48.3219
48.1974
49.2763
51.6131
55.2293
60.113
66.2163
73.4471
81.6566
90.6172
100
-300
-300
-300
-300
-300
-300
-300
-300
-300
-300
100
90.9605
82.1139
73.6426
65.7103
58.4542
51.9823
46.3717
41.6715
37.9075
35.0887
33.214
32.2785
32.2785
33.214
35.0887
37.9075
41.6714
46.3716
51.9823
58.4542
65.7102
73.6426
82.1139
90.9605
100
-300
-300
-300
-300
-300
-300
-300
-300
-300
-300
-300
-300
-300
-300
100
96.7803
93.5964
90.4778
87.4404
84.4804
81.5652
78.6239
75.5366
72.1316
68.2251
63.7969
59.3923
55.5061
52.4703
50.4943
49.7115
50.2075
52.0335
55.2131
59.7438
65.5969
72.7115
80.9776
90.1953
100
-300
-300
-300
-300
-300
-300
-300
-300
-300
-300
100
90.9545
82.1019
73.625
65.6873
58.4264
51.9502
46.3358
41.6324
37.866
35.0453
33.1693
32.2332
32.2332
33.1693
35.0453
37.8659
41.6324
46.3357
51.9501
58.4264
65.6872
73.6249
82.1019
90.9545
100
-300
-300
-300
-300
-300
-300
-300
-300
-300
-300
-300
-300
-300
-300
100
97.8043
95.6306
93.4955
91.405
89.3472
87.2821
85.124
82.7099
79.7443
75.7395
70.1874
64.5107
59.4931
55.4952
52.6943
51.1909
51.0478
52.3037
54.9792
59.0805
64.6025
71.5326
79.8433
89.4432
100
-300
-300
-300
-300
-300
-300
-300
-300
-300
-300
100
90.9507
82.0943
73.6138
65.6728
58.4089
51.9299
46.3131
41.6078
37.8397
35.0179
33.1411
32.2046
32.2046
33.1411
35.0178
37.8396
41.6077
46.313
51.9298
58.4088
65.6727
73.6138
82.0943
90.9506
100
-300
-300
-300
-300
-300
-300
-300
-300
-300
-300
-300
-300
-300
-300
100
98.8868
97.7838
96.6984
95.6316
94.5733
93.4946
92.3298
90.9331
88.9545
85.4452
77.4733
69.8721
63.4801
58.4376
54.7801
52.533
51.7199
52.3598
54.4648
58.0438
63.1117
69.7103
77.9439
88.0094
100
-300
-300
-300
-300
-300
-300
-300
-300
-300
-300
100
90.9483
82.0897
73.607
65.6638
58.398
51.9173
46.2991
41.5925
37.8235
35.0009
33.1236
32.1868
32.1868
33.1235
35.0008
37.8233
41.5923
46.2989
51.9171
58.3978
65.6636
73.6068
82.0895
90.9482
100
-300
-300
-300
-300
-300
-300
-300
-300
-300
-300
-300
-300
-300
-300
100
100
100
100
100
100
100
100
100
100
100
84.9727
74.7963
67.0464
61.0479
56.5987
53.6408
52.1613
52.1596
53.6357
56.5905
61.0368
67.0331
74.7823
84.9613
100
100
100
100
100
100
100
100
100
100
100
100
90.9469
82.0868
73.6028
65.6584
58.3914
51.9097
46.2905
41.5832
37.8136
34.9905
33.1129
32.176
32.1759
33.1128
34.9903
37.8133
41.5829
46.2902
51.9093
58.391
65.658
73.6025
82.0866
90.9467
100
-300
-300
-300
-300
-300
-300
-300
-300
-300
-300
-300
-300
-300
-300
-300
-300
-300
-300
-300
-300
-300
-300
-300
-300
100
88.0104
77.943
69.706
63.1031
58.0307
54.4472
52.3379
51.6942
52.5037
54.7479
58.4032
63.4444
69.8365
77.4397
85.4161
88.9277
90.9083
92.3071
93.4744
94.5558
95.6171
96.6873
97.7763
98.883
100
100
90.946
82.0851
73.6002
65.6551
58.3874
51.9051
46.2854
41.5776
37.8076
34.9843
33.1065
32.1694
32.1693
33.1062
34.9839
37.8071
41.577
46.2847
51.9044
58.3867
65.6545
73.5997
82.0847
90.9458
100
-300
-300
-300
-300
-300
-300
-300
-300
-300
-300
-300
-300
-300
-300
-300
-300
-300
-300
-300
-300
-300
-300
-300
-300
100
89.4366
79.8294
71.5109
64.573
59.0433
54.9351
52.2532
50.9919
51.1305
52.6304
55.4288
59.4256
64.4433
70.1218
75.677
79.6853
82.6548
85.0736
87.237
89.3082
91.3728
93.4708
95.6138
97.7959
100
100
90.9455
82.0841
73.5988
65.6532
58.3851
51.9024
46.2824
41.5743
37.804
34.9805
33.1026
32.1654
32.1652
33.1021
34.9798
37.8031
41.5732
46.2812
51.9011
58.3839
65.6521
73.5978
82.0834
90.9451
100
-300
-300
-300
-300
-300
-300
-300
-300
-300
-300
-300
-300
-300
-300
-300
-300
-300
-300
-300
-300
-300
-300
-300
-300
100
90.1809
80.9487
72.6685
65.5405
59.6748
55.1327
51.9433
50.109
49.6063
50.384
52.3567
55.3909
59.2773
63.684
68.116
72.0277
75.4392
78.5345
81.4852
84.4113
87.3834
90.4339
93.5667
96.7653
100
100
90.9452
82.0835
73.5979
65.6521
58.3837
51.9008
46.2806
41.5723
37.8019
34.9782
33.1001
32.1628
32.1625
33.0993
34.977
37.8003
41.5704
46.2784
51.8986
58.3816
65.6501
73.5963
82.0824
90.9446
100
-300
-300
-300
-300
-300
-300
-300
-300
-300
-300
-300
-300
-300
-300
-300
-300
-300
-300
-300
-300
-300
-300
-300
-300
100
90.5923
81.6072
73.3742
66.1213
59.9978
55.096
51.4642
49.1144
48.0251
48.1419
49.3739
51.5864
54.5893
58.1273
61.8933
65.6147
69.2223
72.7648
76.3225
79.964
83.7319
87.6401
91.6774
95.8125
100
100
90.945
82.0832
73.5974
65.6514
58.3829
51.8998
46.2794
41.571
37.8004
34.9765
33.0983
32.1608
32.1604
33.097
34.9745
37.7977
41.5677
46.2758
51.896
58.3792
65.6481
73.5947
82.0812
90.944
100
-300
-300
-300
-300
-300
-300
-300
-300
-300
-300
-300
-300
-300
-300
-300
-300
-300
-300
-300
-300
-300
-300
-300
-300
100
90.8229
81.9844
73.776
66.4242
60.0928
54.8901
50.8777
48.0761
46.469
46.0056
46.6013
48.136
50.4537
53.3665
56.6752
60.2155
63.9121
67.76
71.7856
76.0169
80.4677
85.1302
89.9747
94.9522
100
100
90.9449
82.083
73.5971
65.651
58.3824
51.8991
46.2786
41.57
37.7993
34.9752
33.0967
32.1589
32.1582
33.0945
34.9717
37.7947
41.5645
46.2725
51.8928
58.3762
65.6454
73.5925
82.0797
90.9432
100
-300
-300
-300
-300
-300
-300
-300
-300
-300
-300
-300
-300
-300
-300
-300
-300
-300
-300
-300
-300
-300
-300
-300
-300
100
90.9484
82.1873
73.9783
66.5382
60.0327
54.5772
50.2412
47.0523
45.0008
44.0434
44.1073
45.0922
46.8755
49.3203
52.291
55.6777
59.4158
63.4808
67.8702
72.5839
77.6115
82.9243
88.4737
94.1927
100
100
90.9448
82.0828
73.5969
65.6506
58.3819
51.8986
46.2779
41.5691
37.7981
34.9737
33.0948
32.1566
32.1554
33.0913
34.968
37.7905
41.56
46.2678
51.8881
58.3717
65.6414
73.5892
82.0774
90.942
100
-300
-300
-300
-300
-300
-300
-300
-300
-300
-300
-300
-300
-300
-300
-300
-300
-300
-300
-300
-300
-300
-300
-300
-300
100
91.0109
82.2821
74.0536
66.5311
59.8772
54.2095
49.6019
46.0875
43.6631
42.2948
41.9226
42.4661
43.8309
45.9169
48.6291
51.89
55.6477
59.8727
64.5472
69.6532
75.1613
81.025
87.1782
93.536
100
100
90.9448
82.0827
73.5966
65.6503
58.3815
51.8979
46.2771
41.568
37.7966
34.9717
33.0923
32.1535
32.1515
33.0866
34.9625
37.7843
41.5533
46.2607
51.8809
58.3648
65.6352
73.5841
82.0737
90.9401
100
-300
-300
-300
-300
-300
-300
-300
-300
-300
-300
-300
-300
-300
-300
-300
-300
-300
-300
-300
-300
-300
-300
-300
-300
100
91.0352
82.3108
74.0511
66.4519
59.6713
53.8268
48.9943
45.2111
42.4802
40.7765
40.0524
40.2447
41.2816
43.0896
45.6012
48.7609
52.5281
56.8736
61.7727
67.1954
73.0988
79.4215
86.082
92.9797
100
100
90.9447
82.0826
73.5964
65.65
58.381
51.8972
46.276
41.5665
37.7945
34.9689
33.0886
32.1488
32.1457
33.0796
34.9543
37.7749
41.5429
46.2497
51.8697
58.3541
65.6255
73.5762
82.0681
90.9372
100
-300
-300
-300
-300
-300
-300
-300
-300
-300
-300
-300
-300
-300
-300
-300
-300
-300
-300
-300
-300
-300
-300
-300
-300
100
91.0367
82.3002
74.0035
66.3344
59.4467
53.4563
48.4403
44.439
41.4608
39.488
38.484
38.3997
39.1807
40.7732
43.129
46.2084
49.9802
54.418
59.4937
65.1701
71.3943
78.0932
85.1724
92.5177
100
100
90.9446
82.0824
73.5961
65.6495
58.3802
51.8961
46.2744
41.5643
37.7915
34.9649
33.0833
32.1419
32.1371
33.069
34.9418
37.7606
41.5271
46.2329
51.8526
58.3376
65.6107
73.5639
82.0593
90.9326
100
-300
-300
-300
-300
-300
-300
-300
-300
-300
-300
-300
-300
-300
-300
-300
-300
-300
-300
-300
-300
-300
-300
-300
-300
100
91.0248
82.2671
73.9317
66.2002
59.2228
53.1138
47.9504
43.7754
40.6012
38.4165
37.1933
36.8938
37.4769
38.9032
41.1387
44.1553
47.9296
52.4384
57.6524
63.5299
70.0109
77.0132
84.4318
92.1411
100
100
90.9445
82.0821
73.5957
65.6488
58.3792
51.8946
46.2722
41.5611
37.7871
34.9589
33.0754
32.1317
32.1243
33.0534
34.9232
37.7392
41.5033
46.2075
51.8267
58.3125
65.5879
73.5451
82.0459
90.9256
100
-300
-300
-300
-300
-300
-300
-300
-300
-300
-300
-300
-300
-300
-300
-300
-300
-300
-300
-300
-300
-300
-300
-300
-300
100
91.005
82.2211
73.8476
66.0615
59.01
52.8058
47.5262
43.2154
39.889
37.5406
36.1488
35.6845
36.1165
37.4163
39.5601
42.5286
46.3046
50.868
56.1895
62.2247
68.9082
76.1511
83.84
91.8401
100
100
90.9444
82.0818
73.5951
65.6479
58.3778
51.8924
46.2691
41.5567
37.7809
34.9504
33.0641
32.117
32.1057
33.0305
34.8958
37.7076
41.468
46.1696
51.7879
58.2748
65.5536
73.5166
82.0255
90.9149
100
-300
-300
-300
-300
-300
-300
-300
-300
-300
-300
-300
-300
-300
-300
-300
-300
-300
-300
-300
-300
-300
-300
-300
-300
100
90.9799
82.1669
73.7565
65.9228
58.8105
52.5312
47.1618
42.7473
39.3056
36.8336
35.3152
34.7273
35.0462
36.2514
38.3266
41.2593
45.0371
49.6425
55.0469
61.204
68.0449
75.4754
83.3759
91.6038
100
100
90.9442
82.0813
73.5943
65.6466
58.3758
51.8895
46.2647
41.5504
37.7721
34.9384
33.048
32.096
32.079
32.9976
34.8564
37.6617
41.4166
46.1141
51.7306
58.2188
65.5025
73.4741
81.9949
90.8989
100
-300
-300
-300
-300
-300
-300
-300
-300
-300
-300
-300
-300
-300
-300
-300
-300
-300
-300
-300
-300
-300
-300
-300
-300
100
90.95
82.105
73.6585
65.7826
58.6207
52.283
46.8459
42.3548
38.8284
36.2664
34.6556
33.9779
34.2147
35.3511
37.3767
40.2838
44.0639
48.7018
54.1694
60.4196
67.3809
74.9554
83.0184
91.4218
100
100
90.9439
82.0807
73.5932
65.6449
58.3731
51.8854
46.2587
41.5418
37.76
34.9217
33.0256
32.0667
32.0416
32.9511
34.8003
37.5962
41.3426
46.0338
51.6473
58.1369
65.4272
73.4111
81.9494
90.8751
100
-300
-300
-300
-300
-300
-300
-300
-300
-300
-300
-300
-300
-300
-300
-300
-300
-300
-300
-300
-300
-300
-300
-300
-300
100
90.9139
82.0326
73.549
65.6346
58.4317
52.0494
46.5632
42.018
38.4329
35.8086
34.1341
33.3942
33.5741
34.663
36.6544
39.5446
43.3279
47.991
53.5066
59.827
66.8792
74.5623
82.7481
91.2841
100
100
90.9435
82.0799
73.5918
65.6425
58.3695
51.8799
46.2507
41.5302
37.7436
34.8991
32.9951
32.0265
31.99
32.8867
34.7221
37.5041
41.2379
45.9194
51.5277
58.0184
65.3177
73.3189
81.8826
90.8399
100
-300
-300
-300
-300
-300
-300
-300
-300
-300
-300
-300
-300
-300
-300
-300
-300
-300
-300
-300
-300
-300
-300
-300
-300
100
90.8686
81.9436
73.4194
65.4677
58.2301
51.8146
46.2951
41.7153
38.0936
35.4306
33.7164
32.9374
33.0813
34.1401
36.1103
38.991
42.7787
47.4619
53.0139
59.3868
66.5066
74.2704
82.5473
91.1819
100
100
90.943
82.0788
73.5899
65.6395
58.3648
51.8728
46.2401
41.5148
37.7218
34.8689
32.9542
31.9725
31.9203
32.7989
34.6148
37.377
41.0922
45.7587
51.3583
57.8492
65.1599
73.1851
81.7849
90.7883
100
-300
-300
-300
-300
-300
-300
-300
-300
-300
-300
-300
-300
-300
-300
-300
-300
-300
-300
-300
-300
-300
-300
-300
-300
100
90.8089
81.8286
73.2567
65.266
57.9981
51.559
46.0204
41.4235
37.785
35.1041
33.371
32.5727
32.6982
33.7416
35.7017
38.5794
42.3732
47.073
52.6528
59.0648
66.2342
74.0571
82.4008
91.1072
100
100
90.9424
82.0775
73.5876
65.6357
58.3588
51.8637
46.2265
41.495
37.6936
34.8296
32.9007
31.9012
31.8277
32.6817
34.4704
37.2044
40.8926
45.5365
51.1215
57.6102
64.9346
72.9921
81.643
90.7129
100
-300
-300
-300
-300
-300
-300
-300
-300
-300
-300
-300
-300
-300
-300
-300
-300
-300
-300
-300
-300
-300
-300
-300
-300
100
90.7274
81.6736
73.042
65.0082
57.7128
51.2592
45.7154
41.1184
37.4817
34.8025
33.0694
32.2693
32.3922
33.4331
35.3926
38.2734
42.0754
46.7898
52.3913
58.8324
66.0382
73.9039
82.2955
91.0536
100
100
90.9417
82.0758
73.5846
65.6309
58.3513
51.8522
46.2094
41.47
37.6578
34.7795
32.832
31.8092
31.7073
32.5281
34.2797
36.9742
40.6238
45.2337
50.795
57.2762
64.6158
72.7156
81.4374
90.6028
100
-300
-300
-300
-300
-300
-300
-300
-300
-300
-300
-300
-300
-300
-300
-300
-300
-300
-300
-300
-300
-300
-300
-300
-300
100
90.6128
81.4583
72.7496
64.6657
57.3455
50.8877
45.3537
40.7749
37.1595
34.5011
32.7864
32.0012
32.1357
33.186
35.1537
38.0432
41.8558
46.5839
52.2031
58.6664
65.8987
73.7951
82.2209
91.0157
100
100
90.9408
82.0739
73.5811
65.6251
58.3422
51.8382
46.1883
41.4391
37.6133
34.7169
32.7457
31.6929
31.5541
32.3311
34.0327
36.6731
40.2679
44.8276
50.3506
56.8145
64.1675
72.3204
81.1392
90.4415
100
-300
-300
-300
-300
-300
-300
-300
-300
-300
-300
-300
-300
-300
-300
-300
-300
-300
-300
-300
-300
-300
-300
-300
-300
100
90.4482
81.1532
72.3431
64.2007
56.8604
50.4118
44.9067
40.3672
36.7947
34.1778
32.5001
31.7463
31.9063
32.977
34.9614
37.8652
41.6913
46.4332
52.0676
58.5482
65.8003
73.7188
82.1688
90.9892
100
100
90.9398
82.0716
73.577
65.6184
58.3314
51.8215
46.1631
41.4018
37.5594
34.6405
32.6398
31.5491
31.3633
32.0836
33.7195
36.287
39.8055
44.2921
49.7545
56.1831
63.5414
71.756
80.7043
90.2023
100
-300
-300
-300
-300
-300
-300
-300
-300
-300
-300
-300
-300
-300
-300
-300
-300
-300
-300
-300
-300
-300
-300
-300
-300
100
90.2067
80.7135
71.7709
63.5631
56.213
49.7943
44.3433
39.8697
36.3654
33.8129
32.1924
31.4869
31.6863
32.7884
34.7976
37.7212
41.5639
46.3205
51.969
58.4638
65.731
73.6656
82.1326
90.9709
100
100
90.9386
82.069
73.5724
65.6106
58.319
51.8022
46.1337
41.3581
37.4957
34.5496
32.5129
31.3757
31.1313
31.78
33.3312
35.8025
39.2171
43.599
48.9676
55.3298
62.6722
70.9488
80.0629
89.8402
100
-300
-300
-300
-300
-300
-300
-300
-300
-300
-300
-300
-300
-300
-300
-300
-300
-300
-300
-300
-300
-300
-300
-300
-300
100
89.843
80.0688
70.9583
62.686
55.3489
48.9928
43.6315
39.2577
35.8521
33.3903
31.8488
31.2094
31.4624
32.6068
34.6488
37.5979
41.4604
46.2331
51.8954
58.4027
65.6818
73.6284
82.1076
90.9583
100
100
90.9374
82.0663
73.5674
65.6022
58.3052
51.7805
46.1004
41.308
37.4223
34.4442
32.3647
31.1716
30.856
31.4165
32.8613
35.2087
38.4849
42.7208
47.9476
54.1928
61.474
69.7901
79.0995
89.2719
100
-300
-300
-300
-300
-300
-300
-300
-300
-300
-300
-300
-300
-300
-300
-300
-300
-300
-300
-300
-300
-300
-300
-300
-300
100
89.2737
79.1032
69.7961
61.4827
54.2047
47.9634
42.7411
38.5103
35.2396
32.898
31.4592
30.9045
31.2255
32.423
34.5058
37.4857
41.3716
46.1621
51.8384
58.3572
65.6464
73.6022
82.0902
90.9497
100
100
90.9363
82.0636
73.5624
65.5934
58.2907
51.7571
46.0639
41.2526
37.3402
34.3254
32.1963
30.9379
30.5381
30.9926
32.3075
34.5
37.5974
41.6353
46.6555
52.7057
59.8405
68.1228
77.6158
88.3262
100
-300
-300
-300
-300
-300
-300
-300
-300
-300
-300
-300
-300
-300
-300
-300
-300
-300
-300
-300
-300
-300
-300
-300
-300
100
88.3273
77.6181
68.1265
59.8458
52.7131
46.6652
41.6477
37.6129
34.5189
32.3299
31.0187
30.5677
30.9707
32.2319
34.363
37.3789
41.2914
46.1015
51.7924
58.3224
65.6204
73.5836
82.0782
90.9438
100
100
90.9354
82.0613
73.5578
65.585
58.2761
51.733
46.0256
41.1935
37.2515
34.1955
32.0105
30.6778
30.1812
30.5123
31.6735
33.6786
36.5531
40.3331
45.0657
50.8117
57.6566
65.7334
75.2649
86.6019
100
-300
-300
-300
-300
-300
-300
-300
-300
-300
-300
-300
-300
-300
-300
-300
-300
-300
-300
-300
-300
-300
-300
-300
-300
100
86.6026
75.2663
65.7356
57.6599
50.8162
45.0715
40.3406
36.5624
33.6899
31.687
30.528
30.1989
30.6975
32.0319
34.218
37.2747
41.2168
46.0482
51.7542
58.2952
65.6012
73.5705
82.0701
90.9398
100
100
90.9349
82.0599
73.5544
65.5781
58.263
51.7101
45.9875
41.1332
37.1592
34.0585
31.8123
30.3974
29.7929
29.985
30.9703
32.7571
35.3653
38.8259
43.1816
48.4908
54.8412
62.3896
71.4772
83.0185
100
100
100
100
100
100
100
100
100
100
100
100
100
100
100
100
100
100
100
100
100
100
100
100
100
100
83.0189
71.478
62.3909
54.8431
48.4934
43.1851
38.8303
35.3708
32.7638
30.9783
29.9942
29.8034
30.409
31.8249
34.0718
37.1729
41.1469
46.0009
51.7226
58.2743
65.5876
73.562
82.0651
90.9375
100
100
90.9353
82.0601
73.5535
65.5741
58.2533
51.6907
45.9528
41.0755
37.0681
33.9202
31.6088
30.1059
29.3848
29.4254
30.217
31.7599
34.0651
37.1528
41.0516
45.7977
51.4373
58.0303
65.6421
74.2399
83.0184
86.6018
88.326
89.2716
89.8396
90.2012
90.4397
90.5999
90.7081
90.7806
90.8276
90.8558
90.869
90.869
90.8558
90.8276
90.7806
90.7081
90.5999
90.4397
90.2012
89.8396
89.2716
88.326
86.6018
83.0185
74.2401
65.6426
58.0311
51.4385
45.7993
41.0536
37.1554
34.0683
31.7638
30.2216
29.4308
29.3909
30.1126
31.6161
33.9279
37.076
41.0835
45.9606
51.6979
58.2598
65.5797
73.5579
82.0632
90.9368
100
100
90.9371
82.0632
73.5567
65.5755
58.25
51.6784
45.9258
41.0256
36.9844
33.7882
31.4096
29.8153
28.9725
28.8537
29.4399
30.7221
32.6998
35.3795
38.7705
42.8799
47.704
53.2106
59.2918
65.6421
71.4771
75.2647
77.6154
79.0988
80.0617
80.7023
81.1358
81.4318
81.6338
81.7701
81.859
81.9125
81.9375
81.9375
81.9125
81.859
81.7701
81.6338
81.4318
81.1358
80.7023
80.0617
79.0988
77.6155
75.2647
71.4772
65.6422
59.2921
53.211
47.7047
42.8807
38.7716
35.381
32.7017
30.7243
29.4426
28.8567
28.976
29.8192
31.4137
33.7926
36.9889
41.0301
45.9302
51.6826
58.2537
65.5786
73.5592
82.0649
90.938
100
100
90.9412
82.0708
73.5665
65.5855
58.2571
51.6783
45.9123
40.9905
36.9164
33.6724
31.2268
29.5407
28.5748
28.2942
28.6711
29.6862
31.3276
33.5871
36.4557
39.9156
43.9278
48.412
53.2105
58.0302
62.3894
65.7331
68.1223
69.7892
70.9471
71.7532
72.3156
72.7077
72.9793
73.1643
73.2859
73.3593
73.3938
73.3938
73.3593
73.2859
73.1643
72.9793
72.7077
72.3156
71.7532
70.9471
69.7892
68.1223
65.7331
62.3895
58.0303
53.2107
48.4123
43.9281
39.9161
36.4564
33.588
31.3286
29.6875
28.6725
28.2959
28.5768
29.5429
31.2291
33.6749
36.9189
40.993
45.9148
51.6806
58.2592
65.5872
73.5679
82.0717
90.9417
100
100
90.9487
82.0851
73.5863
65.6086
58.2803
51.6971
45.9204
40.9794
36.8748
33.5856
31.0753
29.3
28.2139
27.7745
27.9458
28.6986
30.0099
31.8589
34.2222
37.0653
40.3316
43.9277
47.704
51.4372
54.841
57.6562
59.8398
61.4728
62.6702
63.538
64.1617
64.6061
64.9189
65.1346
65.2775
65.3643
65.4053
65.4053
65.3643
65.2775
65.1346
64.9189
64.6061
64.1617
63.538
62.6702
61.4729
59.8398
57.6563
54.841
51.4373
47.7041
43.9279
40.3318
37.0655
34.2226
31.8594
30.0104
28.6993
27.9466
27.7755
28.2149
29.3012
31.0766
33.5869
36.8762
40.9808
45.9218
51.6983
58.2815
65.6096
73.5871
82.0857
90.9489
100
100
90.9612
82.1096
73.6211
65.6513
58.3275
51.744
45.9607
41.0044
36.8734
33.5431
30.9731
29.1141
27.9145
27.3248
27.3011
27.8056
28.8058
30.2711
32.1679
34.4531
37.0653
39.9155
42.8798
45.7976
48.4905
50.8113
52.705
54.1914
55.3275
56.1792
56.808
57.2654
57.5926
57.821
57.9738
58.0671
58.1113
58.1113
58.0671
57.9738
57.821
57.5926
57.2654
56.808
56.1792
55.3275
54.1914
52.705
50.8113
48.4906
45.7976
42.8798
39.9156
37.0654
34.4533
32.1681
30.2713
28.8061
27.806
27.3015
27.3253
27.915
29.1147
30.9738
33.5439
36.8742
41.0052
45.9614
51.7447
58.3281
65.6518
73.6215
82.1098
90.9614
100
100
90.9811
82.1484
73.6772
65.7221
58.4091
51.8314
46.0472
41.0814
36.9298
33.5647
30.9418
29.0074
27.7043
26.977
26.7747
27.0521
27.7693
28.8885
30.3702
32.1679
34.2222
36.4557
38.7704
41.0515
43.1814
45.0652
46.6547
47.9462
48.9652
49.7505
50.3438
50.7837
51.1032
51.3289
51.4812
51.5749
51.6194
51.6194
51.5749
51.4812
51.3289
51.1032
50.7837
50.3438
49.7505
48.9652
47.9462
46.6547
45.0652
43.1814
41.0515
38.7704
36.4558
34.2223
32.168
30.3703
28.8887
27.7695
27.0523
26.7749
26.9773
27.7046
29.0077
30.9422
33.5651
36.9302
41.0818
46.0475
51.8317
58.4094
65.7224
73.6775
82.1486
90.9812
100
100
91.0112
82.2076
73.7635
65.8322
58.5389
51.9753
46.1982
41.2306
37.0661
33.6743
31.0076
29.0083
27.6145
26.7656
26.4048
26.4813
26.9491
27.7657
28.8885
30.2711
31.8589
33.5871
35.3794
37.1527
38.8257
40.3327
41.6345
42.7194