# vtk DataFile Version 2.0
LBE two cylinders
ASCII
DATASET STRUCTURED_POINTS
DIMENSIONS 76 76 1
ASPECT_RATIO 1 1 1
ORIGIN 0 0 0
POINT_DATA 5776
SCALARS temp double 1
LOOKUP_TABLE default
100
100
100
100
100
100
100
100
100
100
100
100
100
100
100
100
100
100
100
100
100
100
100
100
100
100
-300
-300
-300
-300
-300
-300
-300
-300
-300
-300
-300
-300
-300
-300
100
100
100
100
100
100
100
100
100
100
100
100
100
100
100
100
100
100
100
100
100
100
100
100
100
100
-300
-300
-300
-300
-300
-300
-300
-300
-300
-300
100
96.7
93.6137
90.9136
88.7024
87.0065
85.7869
84.9637
84.4417
84.1305
83.9568
83.8679
83.8312
83.8312
83.8679
83.9568
84.1305
84.4417
84.9637
85.7869
87.0065
88.7024
90.9136
93.6137
96.7
100
-300
-300
-300
-300
-300
-300
-300
-300
-300
-300
-300
-300
-300
-300
100
96.7
93.6137
90.9136
88.7024
87.0065
85.7869
84.9637
84.4417
84.1305
83.9568
83.8679
83.8312
83.8312
83.8679
83.9568
84.1305
84.4417
84.9637
85.7869
87.0065
88.7024
90.9136
93.6137
96.7
100
-300
-300
-300
-300
-300
-300
-300
-300
-300
-300
100
93.6137
87.6411
82.4158
78.137
74.8551
72.4952
70.9024
69.8925
69.2905
68.9545
68.7825
68.7114
68.7114
68.7825
68.9545
69.2905
69.8925
70.9024
72.4952
74.8551
78.137
82.4158
87.6411
93.6137
100
-300
-300
-300
-300
-300
-300
-300
-300
-300
-300
-300
-300
-300
-300
100
93.6137
87.6411
82.4158
78.137
74.8551
72.4952
70.9024
69.8925
69.2905
68.9545
68.7825
68.7114
68.7114
68.7825
68.9545
69.2905
69.8925
70.9024
72.4952
74.8551
78.137
82.4158
87.6411
93.6137
100
-300
-300
-300
-300
-300
-300
-300
-300
-300
-300
100
90.9136
82.4158
74.9814
68.8939
64.2251
60.8681
58.6025
57.166
56.3099
55.8321
55.5876
55.4865
55.4865
55.5876
55.8321
56.3099
57.166
58.6025
60.8681
64.2251
68.8939
74.9814
82.4158
90.9136
100
-300
-300
-300
-300
-300
-300
-300
-300
-300
-300
-300
-300
-300
-300
100
90.9136
82.4158
74.9814
68.8939
64.2251
60.8681
58.6025
57.166
56.3099
55.8321
55.5876
55.4865
55.4865
55.5876
55.8321
56.3099
57.166
58.6025
60.8681
64.2251
68.8939
74.9814
82.4158
90.9136
100
-300
-300
-300
-300
-300
-300
-300
-300
-300
-300
100
88.7024
78.137
68.8939
61.3259
55.5219
51.3489
48.533
46.7478
45.684
45.0903
44.7865
44.6609
44.6609
44.7865
45.0903
45.684
46.7478
48.533
51.3489
55.5219
61.3259
68.8939
78.137
88.7024
100
-300
-300
-300
-300
-300
-300
-300
-300
-300
-300
-300
-300
-300
-300
100
88.7024
78.137
68.8939
61.3259
55.5219
51.349
48.533
46.7478
45.684
45.0903
44.7865
44.6609
44.6609
44.7865
45.0903
45.684
46.7478
48.533
51.3489
55.5219
61.3259
68.8939
78.137
88.7024
100
-300
-300
-300
-300
-300
-300
-300
-300
-300
-300
100
87.0065
74.8551
64.2251
55.5219
48.8478
44.0497
40.8123
38.76
37.5373
36.855
36.5059
36.3616
36.3616
36.5059
36.855
37.5373
38.76
40.8123
44.0497
48.8478
55.5219
64.2251
74.8551
87.0065
100
-300
-300
-300
-300
-300
-300
-300
-300
-300
-300
-300
-300
-300
-300
100
87.0065
74.8551
64.2251
55.5219
48.8479
44.0498
40.8123
38.76
37.5373
36.855
36.5059
36.3616
36.3616
36.5059
36.855
37.5373
38.76
40.8123
44.0497
48.8478
55.5219
64.2251
74.8551
87.0065
100
-300
-300
-300
-300
-300
-300
-300
-300
-300
-300
100
85.7868
72.4951
60.8679
51.3488
44.0496
38.8024
35.2624
33.0186
31.6819
30.9361
30.5546
30.3969
30.3969
30.5546
30.9361
31.6819
33.0186
35.2624
38.8024
44.0496
51.3488
60.8679
72.4951
85.7868
100
-300
-300
-300
-300
-300
-300
-300
-300
-300
-300
-300
-300
-300
-300
100
85.7869
72.4952
60.8681
51.3489
44.0497
38.8026
35.2626
33.0187
31.6821
30.9362
30.5547
30.397
30.397
30.5546
30.9361
31.6819
33.0186
35.2624
38.8024
44.0496
51.3488
60.8679
72.4951
85.7868
100
-300
-300
-300
-300
-300
-300
-300
-300
-300
-300
100
84.9636
70.9022
58.6021
48.5326
40.8118
35.262
31.5182
29.1454
27.7321
26.9435
26.5403
26.3736
26.3736
26.5403
26.9435
27.7321
29.1454
31.5182
35.262
40.8118
48.5326
58.6021
70.9022
84.9636
100
-300
-300
-300
-300
-300
-300
-300
-300
-300
-300
-300
-300
-300
-300
100
84.9637
70.9024
58.6025
48.533
40.8123
35.2625
31.5187
29.1458
27.7325
26.9439
26.5406
26.3738
26.3738
26.5404
26.9436
27.7321
29.1454
31.5182
35.262
40.8118
48.5326
58.6021
70.9022
84.9636
100
-300
-300
-300
-300
-300
-300
-300
-300
-300
-300
100
84.4413
69.8917
57.1649
46.7465
38.7586
33.0171
29.1443
26.6899
25.2282
24.4127
23.9957
23.8234
23.8234
23.9957
24.4127
25.2282
26.6899
29.1443
33.0171
38.7586
46.7465
57.1649
69.8917
84.4413
100
-300
-300
-300
-300
-300
-300
-300
-300
-300
-300
-300
-300
-300
-300
100
84.4417
69.8924
57.166
46.7477
38.76
33.0186
29.1457
26.6913
25.2294
24.4138
23.9966
23.8241
23.8239
23.9961
24.413
25.2283
26.69
29.1443
33.0172
38.7586
46.7465
57.1649
69.8917
84.4413
100
-300
-300
-300
-300
-300
-300
-300
-300
-300
-300
100
84.1295
69.2885
56.307
45.6804
37.5332
31.6776
27.7279
25.2251
23.7345
22.9031
22.4779
22.3022
22.3022
22.4779
22.9031
23.7345
25.2251
27.7279
31.6776
37.5332
45.6804
56.307
69.2885
84.1295
100
-300
-300
-300
-300
-300
-300
-300
-300
-300
-300
-300
-300
-300
-300
100
84.1305
69.2905
56.3099
45.6839
37.5371
31.6817
27.732
25.2289
23.738
22.9061
22.4804
22.3042
22.3036
22.4789
22.9037
23.7349
25.2253
27.728
31.6776
37.5332
45.6804
56.307
69.2885
84.1295
100
-300
-300
-300
-300
-300
-300
-300
-300
-300
-300
100
83.954
68.9491
55.8244
45.0807
36.844
30.9243
26.9315
24.4015
22.8948
22.0544
21.6247
21.4471
21.4471
21.6247
22.0544
22.8948
24.4015
26.9315
30.9243
36.844
45.0807
55.8244
68.9491
83.954
100
-300
-300
-300
-300
-300
-300
-300
-300
-300
-300
-300
-300
-300
-300
100
83.9568
68.9544
55.8319
45.0899
36.8543
30.9351
26.9423
24.4117
22.9041
22.0625
21.6314
21.4524
21.451
21.6274
22.0562
22.8959
24.4021
26.9318
30.9244
36.8441
45.0807
55.8243
68.949
83.954
100
-300
-300
-300
-300
-300
-300
-300
-300
-300
-300
100
83.8608
68.7688
55.5681
44.7623
36.4782
30.5244
26.5088
23.9644
22.4492
21.6041
21.172
20.9934
20.9934
21.172
21.6041
22.4492
23.9644
26.5088
30.5244
36.4782
44.7623
55.5681
68.7688
83.8608
100
-300
-300
-300
-300
-300
-300
-300
-300
-300
-300
-300
-300
-300
-300
100
83.8678
68.7823
55.5871
44.7856
36.5042
30.5519
26.5363
23.9905
22.473
21.6248
21.1891
21.0069
21.0034
21.179
21.6088
22.4521
23.9661
26.5097
30.5248
36.4782
44.7622
55.5679
68.7686
83.8607
100
-300
-300
-300
-300
-300
-300
-300
-300
-300
-300
100
83.814
68.6783
55.4394
44.6025
36.2946
30.3238
26.2968
23.7452
22.2258
21.3783
20.945
20.7659
20.7659
20.945
21.3783
22.2258
23.7452
26.2968
30.3238
36.2946
44.6025
55.4394
68.6783
83.814
100
-300
-300
-300
-300
-300
-300
-300
-300
-300
-300
-300
-300
-300
-300
100
83.8309
68.7108
55.4853
44.6587
36.3576
30.3902
26.3632
23.8086
22.2836
21.4286
20.9866
20.7987
20.7903
20.9621
21.3897
22.2328
23.7493
26.2989
30.3246
36.2946
44.6021
55.4389
68.6778
83.8138
100
-300
-300
-300
-300
-300
-300
-300
-300
-300
-300
100
83.7918
68.6353
55.3783
44.5266
36.2073
30.2285
26.1961
23.6411
22.1196
21.271
20.8372
20.6579
20.6579
20.8372
21.271
22.1196
23.6411
26.1961
30.2285
36.2073
44.5266
55.3783
68.6353
83.7918
100
-300
-300
-300
-300
-300
-300
-300
-300
-300
-300
-300
-300
-300
-300
100
83.8307
68.7101
55.4839
44.6559
36.3527
30.3818
26.3496
23.7878
22.2536
21.3878
20.934
20.734
20.7146
20.8771
21.2975
22.1361
23.6505
26.2008
30.2303
36.2073
44.5255
55.3768
68.6339
83.791
100
-300
-300
-300
-300
-300
-300
-300
-300
-300
-300
100
83.7818
68.6159
55.3507
44.4924
36.168
30.1856
26.1507
23.5942
22.0719
21.2228
20.7886
20.6092
20.6092
20.7886
21.2228
22.0719
23.5942
26.1507
30.1856
36.168
44.4924
55.3507
68.6159
83.7818
100
-300
-300
-300
-300
-300
-300
-300
-300
-300
-300
-300
-300
-300
-300
100
83.8669
68.7799
55.5821
44.7761
36.4871
30.5225
26.4887
23.9178
22.3678
21.481
21.0029
20.778
20.7349
20.8771
21.2813
22.1081
23.6148
26.1609
30.1891
36.1674
44.4894
55.3469
68.6125
83.7798
100
-300
-300
-300
-300
-300
-300
-300
-300
-300
-300
100
83.7775
68.6076
55.3389
44.4777
36.1512
30.1672
26.1313
23.5741
22.0514
21.2021
20.7679
20.5884
20.5884
20.7679
21.2021
22.0514
23.5741
26.1313
30.1672
36.1512
44.4777
55.3389
68.6076
83.7775
100
-300
-300
-300
-300
-300
-300
-300
-300
-300
-300
-300
-300
-300
-300
100
83.9548
68.9494
55.8215
45.0698
36.8177
30.872
26.8395
24.2535
22.674
21.7461
21.2198
20.9444
20.8535
20.9542
21.3253
22.1274
23.6171
26.1521
30.1736
36.1486
44.47
55.3294
68.5992
83.7726
100
-300
-300
-300
-300
-300
-300
-300
-300
-300
-300
100
83.7757
68.6042
55.3341
44.4718
36.1444
30.1598
26.1235
23.566
22.0431
21.1937
20.7594
20.58
20.58
20.7594
21.1937
22.0431
23.566
26.1235
30.1598
36.1444
44.4718
55.3341
68.6042
83.7757
100
-300
-300
-300
-300
-300
-300
-300
-300
-300
-300
-300
-300
-300
-300
100
84.1269
69.2812
56.2905
45.6463
37.4682
31.562
27.5353
24.9233
23.2896
22.2847
21.6666
21.2945
21.1117
21.1326
21.4398
22.1945
23.6507
26.1634
30.1703
36.1363
44.4529
55.3115
68.5843
83.7641
100
-300
-300
-300
-300
-300
-300
-300
-300
-300
-300
100
83.7751
68.6029
55.3323
44.4694
36.1417
30.1569
26.1204
23.5628
22.0399
21.1905
20.7562
20.5767
20.5767
20.7562
21.1905
22.0399
23.5628
26.1204
30.1569
36.1417
44.4694
55.3323
68.6029
83.7751
100
-300
-300
-300
-300
-300
-300
-300
-300
-300
-300
-300
-300
-300
-300
100
84.4355
69.8767
57.1329
46.683
38.6401
32.8083
28.7964
26.1424
24.4147
23.273
22.4892
21.9412
21.5907
21.4662
21.6574
22.3257
23.7212
26.1925
30.1718
36.1196
44.4255
55.2806
68.5575
83.7486
100
-300
-300
-300
-300
-300
-300
-300
-300
-300
-300
100
83.7748
68.6024
55.3316
44.4686
36.1408
30.1558
26.1193
23.5617
22.0387
21.1893
20.755
20.5755
20.5755
20.755
21.1893
22.0387
23.5617
26.1193
30.1558
36.1408
44.4686
55.3316
68.6024
83.7748
100
-300
-300
-300
-300
-300
-300
-300
-300
-300
-300
-300
-300
-300
-300
100
84.9541
70.8778
58.5501
48.4297
40.6189
34.9192
30.9405
28.2241
26.3443
24.9729
23.9056
23.0534
22.4129
22.0376
22.0294
22.55
23.8414
26.2413
30.1716
36.0858
44.3709
55.2186
68.5032
83.7166
100
-300
-300
-300
-300
-300
-300
-300
-300
-300
-300
100
83.7747
68.6022
55.3313
44.4683
36.1404
30.1554
26.1189
23.5613
22.0383
21.1889
20.7546
20.5751
20.5751
20.7546
21.1889
22.0383
23.5613
26.1189
30.1554
36.1404
44.4683
55.3313
68.6022
83.7747
100
-300
-300
-300
-300
-300
-300
-300
-300
-300
-300
-300
-300
-300
-300
100
85.7731
72.4597
60.792
51.1971
43.7621
38.2843
34.375
31.5775
29.4693
27.7354
26.2067
24.8544
23.7371
22.9523
22.6212
22.9036
24.0273
26.3109
30.1593
36.015
44.2617
55.0944
68.3933
83.6514
100
-300
-300
-300
-300
-300
-300
-300
-300
-300
-300
100
83.7747
68.6022
55.3312
44.4682
36.1403
30.1553
26.1187
23.5611
22.0382
21.1887
20.7544
20.5749
20.5749
20.7544
21.1887
22.0382
23.5611
26.1187
30.1553
36.1403
44.4682
55.3312
68.6022
83.7747
100
-300
-300
-300
-300
-300
-300
-300
-300
-300
-300
-300
-300
-300
-300
100
86.9885
74.8086
64.1245
55.3187
48.4573
43.3337
39.5608
36.6793
34.2592
31.988
29.7424
27.6034
25.7406
24.3236
23.5001
23.4225
24.2926
26.3979
30.1164
35.8741
44.0517
54.854
68.177
83.5209
100
-300
-300
-300
-300
-300
-300
-300
-300
-300
-300
100
83.7747
68.6022
55.3312
44.4682
36.1403
30.1553
26.1187
23.5611
22.0381
21.1887
20.7544
20.5749
20.5749
20.7544
21.1887
22.0381
23.5611
26.1187
30.1553
36.1403
44.4682
55.3312
68.6022
83.7747
100
-300
-300
-300
-300
-300
-300
-300
-300
-300
-300
-300
-300
-300
-300
100
88.6816
78.0824
68.7749
61.0825
55.0464
50.4592
46.9384
44.0147
41.2229
38.2101
34.8876
31.5549
28.5811
26.2428
24.7152
24.1288
24.6406
26.4892
30.012
35.6114
43.6673
54.4069
67.7634
83.2644
100
-300
-300
-300
-300
-300
-300
-300
-300
-300
-300
100
83.7747
68.6022
55.3312
44.4681
36.1403
30.1552
26.1187
23.5611
22.0381
21.1886
20.7543
20.5749
20.5749
20.7543
21.1886
22.0381
23.5611
26.1187
30.1552
36.1403
44.4681
55.3312
68.6022
83.7747
100
-300
-300
-300
-300
-300
-300
-300
-300
-300
-300
-300
-300
-300
-300
100
90.8925
82.3603
74.8591
68.6405
63.7213
59.9036
56.8211
53.9908
50.8632
46.922
41.9905
36.8873
32.3326
28.7337
26.2691
25.0155
25.0566
26.5588
29.8017
35.155
43
53.6071
66.9911
82.763
100
-300
-300
-300
-300
-300
-300
-300
-300
-300
-300
100
83.7747
68.6022
55.3312
44.4681
36.1402
30.1552
26.1187
23.5611
22.0381
21.1886
20.7543
20.5749
20.5749
20.7543
21.1886
22.0381
23.5611
26.1187
30.1552
36.1402
44.4681
55.3312
68.6022
83.7747
100
-300
-300
-300
-300
-300
-300
-300
-300
-300
-300
-300
-300
-300
-300
100
93.5963
87.5949
82.3129
77.9211
74.4187
71.6393
69.2667
66.8299
63.6522
58.7805
51.2963
43.5822
36.8951
31.6988
28.0896
26.0332
25.5033
26.569
29.4327
34.4178
41.9054
52.2338
65.5739
81.7657
100
-300
-300
-300
-300
-300
-300
-300
-300
-300
-300
100
83.7747
68.6022
55.3312
44.4681
36.1402
30.1552
26.1187
23.5611
22.0381
21.1886
20.7543
20.5749
20.5749
20.7543
21.1886
22.0381
23.5611
26.1187
30.1552
36.1402
44.4681
55.3312
68.6022
83.7747
100
-300
-300
-300
-300
-300
-300
-300
-300
-300
-300
-300
-300
-300
-300
100
96.69
93.5872
90.8542
88.5767
86.7486
85.2704
83.9428
82.4192
80.02
75.0935
62.7427
51.2059
41.8827
34.8759
30.0164
27.0883
25.9253
26.4796
28.8584
33.3188
40.2248
49.9852
63.0106
79.6852
100
-300
-300
-300
-300
-300
-300
-300
-300
-300
-300
100
83.7747
68.6022
55.3312
44.4681
36.1402
30.1552
26.1187
23.5611
22.0381
21.1886
20.7543
20.5749
20.5749
20.7543
21.1886
22.0381
23.5611
26.1187
30.1552
36.1402
44.4681
55.3312
68.6022
83.7747
100
-300
-300
-300
-300
-300
-300
-300
-300
-300
-300
-300
-300
-300
-300
100
100
100
100
100
100
100
100
100
100
100
74.9501
58.4926
46.5462
37.8527
31.8267
28.0632
26.2638
26.2638
28.0632
31.8267
37.8527
46.5462
58.4926
74.9501
100
100
100
100
100
100
100
100
100
100
100
100
83.7747
68.6022
55.3312
44.4681
36.1402
30.1552
26.1187
23.5611
22.0381
21.1886
20.7543
20.5749
20.5749
20.7543
21.1886
22.0381
23.5611
26.1187
30.1552
36.1402
44.4681
55.3312
68.6022
83.7747
100
-300
-300
-300
-300
-300
-300
-300
-300
-300
-300
-300
-300
-300
-300
-300
-300
-300
-300
-300
-300
-300
-300
-300
-300
100
79.6852
63.0106
49.9852
40.2248
33.3188
28.8584
26.4796
25.9253
27.0883
30.0164
34.8759
41.8827
51.2059
62.7427
75.0935
80.02
82.4192
83.9428
85.2704
86.7486
88.5767
90.8542
93.5872
96.69
100
100
83.7747
68.6022
55.3312
44.4681
36.1402
30.1552
26.1187
23.5611
22.0381
21.1886
20.7543
20.5749
20.5749
20.7543
21.1886
22.0381
23.5611
26.1187
30.1552
36.1402
44.4681
55.3312
68.6022
83.7747
100
-300
-300
-300
-300
-300
-300
-300
-300
-300
-300
-300
-300
-300
-300
-300
-300
-300
-300
-300
-300
-300
-300
-300
-300
100
81.7657
65.5739
52.2338
41.9054
34.4178
29.4327
26.569
25.5033
26.0332
28.0896
31.6988
36.8951
43.5822
51.2963
58.7805
63.6522
66.8299
69.2667
71.6393
74.4187
77.9211
82.3129
87.5949
93.5963
100
100
83.7747
68.6022
55.3312
44.4681
36.1402
30.1552
26.1187
23.5611
22.0381
21.1886
20.7543
20.5749
20.5749
20.7543
21.1886
22.0381
23.5611
26.1187
30.1552
36.1402
44.4681
55.3312
68.6022
83.7747
100
-300
-300
-300
-300
-300
-300
-300
-300
-300
-300
-300
-300
-300
-300
-300
-300
-300
-300
-300
-300
-300
-300
-300
-300
100
82.763
66.9911
53.6071
43
35.155
29.8017
26.5587
25.0566
25.0155
26.2691
28.7337
32.3326
36.8873
41.9905
46.922
50.8632
53.9908
56.8211
59.9036
63.7213
68.6405
74.8591
82.3603
90.8925
100
100
83.7747
68.6022
55.3312
44.4681
36.1402
30.1552
26.1187
23.5611
22.0381
21.1886
20.7543
20.5749
20.5749
20.7543
21.1886
22.0381
23.5611
26.1187
30.1552
36.1402
44.4681
55.3312
68.6022
83.7747
100
-300
-300
-300
-300
-300
-300
-300
-300
-300
-300
-300
-300
-300
-300
-300
-300
-300
-300
-300
-300
-300
-300
-300
-300
100
83.2644
67.7634
54.4069
43.6673
35.6114
30.012
26.4892
24.6406
24.1287
24.7152
26.2428
28.581
31.5549
34.8876
38.2101
41.2229
44.0147
46.9384
50.4592
55.0464
61.0824
68.7749
78.0824
88.6816
100
100
83.7747
68.6022
55.3312
44.4681
36.1402
30.1552
26.1187
23.5611
22.0381
21.1886
20.7543
20.5749
20.5749
20.7543
21.1886
22.0381
23.5611
26.1187
30.1552
36.1402
44.4681
55.3312
68.6022
83.7747
100
-300
-300
-300
-300
-300
-300
-300
-300
-300
-300
-300
-300
-300
-300
-300
-300
-300
-300
-300
-300
-300
-300
-300
-300
100
83.5208
68.1769
54.854
44.0516
35.874
30.1163
26.3979
24.2925
23.4224
23.5
24.3236
25.7405
27.6033
29.7423
31.9879
34.2591
36.6793
39.5607
43.3336
48.4573
55.3187
64.1245
74.8085
86.9885
100
100
83.7747
68.6022
55.3312
44.4681
36.1402
30.1552
26.1187
23.5611
22.0381
21.1886
20.7543
20.5749
20.5749
20.7543
21.1886
22.0381
23.5611
26.1187
30.1552
36.1402
44.4681
55.3312
68.6022
83.7747
100
-300
-300
-300
-300
-300
-300
-300
-300
-300
-300
-300
-300
-300
-300
-300
-300
-300
-300
-300
-300
-300
-300
-300
-300
100
83.6513
68.3932
55.0943
44.2616
36.0149
30.1591
26.3107
24.0271
22.9034
22.621
22.9521
23.7369
24.8542
26.2065
27.7352
29.4691
31.5773
34.3748
38.2841
43.7619
51.1969
60.7918
72.4596
85.773
100
100
83.7747
68.6022
55.3312
44.4681
36.1402
30.1552
26.1187
23.5611
22.0381
21.1886
20.7543
20.5749
20.5749
20.7543
21.1886
22.0381
23.5611
26.1187
30.1552
36.1402
44.4681
55.3312
68.6022
83.7747
100
-300
-300
-300
-300
-300
-300
-300
-300
-300
-300
-300
-300
-300
-300
-300
-300
-300
-300
-300
-300
-300
-300
-300
-300
100
83.7165
68.503
55.2182
44.3705
36.0853
30.171
26.2407
23.8407
22.5493
22.0288
22.0369
22.4123
23.0528
23.9049
24.9723
26.3437
28.2235
30.9399
34.9186
40.6184
48.4292
58.5498
70.8775
84.9539
100
100
83.7747
68.6022
55.3312
44.4681
36.1402
30.1552
26.1187
23.5611
22.0381
21.1886
20.7543
20.5749
20.5749
20.7543
21.1886
22.0381
23.5611
26.1187
30.1552
36.1402
44.4681
55.3312
68.6022
83.7747
100
-300
-300
-300
-300
-300
-300
-300
-300
-300
-300
-300
-300
-300
-300
-300
-300
-300
-300
-300
-300
-300
-300
-300
-300
100
83.7482
68.5568
55.2795
44.4242
36.118
30.1702
26.1908
23.7194
22.3239
21.6556
21.4644
21.5889
21.9393
22.4874
23.2711
24.4129
26.1406
28.7947
32.8067
38.6386
46.6817
57.1318
69.876
84.4351
100
100
83.7747
68.6022
55.3312
44.4681
36.1402
30.1552
26.1187
23.5611
22.0381
21.1886
20.7543
20.5749
20.5749
20.7543
21.1886
22.0381
23.5611
26.1187
30.1552
36.1402
44.4681
55.3312
68.6021
83.7747
100
-300
-300
-300
-300
-300
-300
-300
-300
-300
-300
-300
-300
-300
-300
-300
-300
-300
-300
-300
-300
-300
-300
-300
-300
100
83.763
68.5822
55.3085
44.4493
36.1321
30.1658
26.1586
23.6458
22.1894
21.4348
21.1275
21.1066
21.2894
21.6615
22.2796
23.2846
24.9184
27.5305
31.5574
37.464
45.6427
56.2876
69.2792
84.1258
100
100
83.7747
68.6022
55.3312
44.4681
36.1402
30.1552
26.1187
23.5611
22.0381
21.1886
20.7543
20.5749
20.5749
20.7543
21.1886
22.0381
23.561
26.1186
30.1552
36.1402
44.4681
55.3311
68.6021
83.7746
100
-300
-300
-300
-300
-300
-300
-300
-300
-300
-300
-300
-300
-300
-300
-300
-300
-300
-300
-300
-300
-300
-300
-300
-300
100
83.7697
68.5937
55.3216
44.4604
36.1376
30.1616
26.1394
23.604
22.1141
21.3118
20.9406
20.84
20.9308
21.2063
21.7326
22.6606
24.2404
26.8269
30.86
36.8067
45.0602
55.8138
68.944
83.952
100
100
83.7747
68.6022
55.3312
44.4681
36.1402
30.1552
26.1187
23.5611
22.0381
21.1886
20.7543
20.5749
20.5749
20.7543
21.1886
22.038
23.561
26.1186
30.1551
36.14
44.4679
55.331
68.602
83.7746
100
-300
-300
-300
-300
-300
-300
-300
-300
-300
-300
-300
-300
-300
-300
-300
-300
-300
-300
-300
-300
-300
-300
-300
-300
100
83.7726
68.5985
55.3271
44.4649
36.1394
30.1585
26.1287
23.5816
22.0743
21.2472
20.8428
20.7006
20.7436
20.9687
21.4469
22.3341
23.8846
26.4566
30.4921
36.4593
44.7519
55.5626
68.7662
83.8598
100
100
83.7747
68.6022
55.3312
44.4681
36.1402
30.1552
26.1187
23.5611
22.0381
21.1886
20.7543
20.5749
20.5748
20.7543
21.1886
22.038
23.5608
26.1183
30.1548
36.1396
44.4675
55.3305
68.6016
83.7744
100
-300
-300
-300
-300
-300
-300
-300
-300
-300
-300
-300
-300
-300
-300
-300
-300
-300
-300
-300
-300
-300
-300
-300
-300
100
83.7736
68.6003
55.3291
44.4664
36.1396
30.1565
26.1231
23.5702
22.0544
21.215
20.7942
20.6316
20.651
20.8511
21.3054
22.1721
23.7078
26.2722
30.3085
36.2856
44.5975
55.4368
68.677
83.8135
100
100
83.7747
68.6022
55.3312
44.4681
36.1402
30.1552
26.1187
23.5611
22.0381
21.1886
20.7543
20.5748
20.5748
20.7542
21.1884
22.0377
23.5605
26.1178
30.154
36.1387
44.4663
55.3294
68.6007
83.7739
100
-300
-300
-300
-300
-300
-300
-300
-300
-300
-300
-300
-300
-300
-300
-300
-300
-300
-300
-300
-300
-300
-300
-300
-300
100
83.7736
68.6002
55.3289
44.466
36.1387
30.1548
26.1199
23.5646
22.0448
21.1998
20.7714
20.5992
20.6076
20.796
21.239
22.0959
23.6245
26.1851
30.2216
36.2033
44.5243
55.3771
68.6347
83.7916
100
100
83.7747
68.6022
55.3312
44.4681
36.1402
30.1552
26.1187
23.5611
22.0381
21.1886
20.7543
20.5748
20.5747
20.7541
21.1882
22.0372
23.5596
26.1165
30.1522
36.1363
44.4636
55.3267
68.5984
83.7726
100
-300
-300
-300
-300
-300
-300
-300
-300
-300
-300
-300
-300
-300
-300
-300
-300
-300
-300
-300
-300
-300
-300
-300
-300
100
83.7725
68.5983
55.3265
44.4635
36.1363
30.1525
26.1174
23.5613
22.0401
21.1928
20.7611
20.5848
20.5883
20.7714
21.2093
22.0619
23.5872
26.1461
30.1827
36.1663
44.4914
55.3502
68.6156
83.7817
100
100
83.7747
68.6022
55.3312
44.4681
36.1402
30.1552
26.1187
23.5611
22.0381
21.1886
20.7543
20.5747
20.5746
20.7538
21.1875
22.0361
23.5577
26.1135
30.1479
36.1307
44.4572
55.3202
68.5931
83.7695
100
-300
-300
-300
-300
-300
-300
-300
-300
-300
-300
-300
-300
-300
-300
-300
-300
-300
-300
-300
-300
-300
-300
-300
-300
100
83.7695
68.593
55.3201
44.4571
36.1307
30.148
26.1138
23.5584
22.0372
21.1894
20.7565
20.5785
20.58
20.761
21.1967
22.0474
23.5713
26.1295
30.1661
36.1505
44.4773
55.3387
68.6075
83.7774
100
100
83.7747
68.6022
55.3312
44.4681
36.1402
30.1552
26.1187
23.5611
22.0381
21.1886
20.7542
20.5746
20.5742
20.7531
21.1862
22.0336
23.5535
26.1069
30.1384
36.1183
44.4427
55.3056
68.581
83.7626
100
-300
-300
-300
-300
-300
-300
-300
-300
-300
-300
-300
-300
-300
-300
-300
-300
-300
-300
-300
-300
-300
-300
-300
-300
100
83.7626
68.5809
55.3056
44.4427
36.1184
30.1384
26.107
23.5537
22.034
21.1868
20.7541
20.5757
20.5766
20.7567
21.1916
22.0416
23.5649
26.1227
30.1593
36.1441
44.4716
55.334
68.6042
83.7757
100
100
83.7747
68.6022
55.3312
44.4681
36.1402
30.1552
26.1187
23.561
22.038
21.1885
20.7541
20.5743
20.5735
20.7516
21.1833
22.0285
23.5448
26.0931
30.1185
36.0921
44.4118
55.2739
68.5544
83.7473
100
-300
-300
-300
-300
-300
-300
-300
-300
-300
-300
-300
-300
-300
-300
-300
-300
-300
-300
-300
-300
-300
-300
-300
-300
100
83.7473
68.5544
55.2739
44.4118
36.0921
30.1185
26.0932
23.5449
22.0286
21.1836
20.752
20.5741
20.575
20.755
21.1896
22.0393
23.5624
26.1201
30.1567
36.1416
44.4694
55.3322
68.6029
83.7751
100
100
83.7747
68.6022
55.3312
44.4681
36.1402
30.1552
26.1187
23.561
22.038
21.1884
20.7538
20.5737
20.5722
20.7489
21.1779
22.0185
23.5277
26.066
30.0787
36.039
44.3485
55.2083
68.4988
83.715
100
-300
-300
-300
-300
-300
-300
-300
-300
-300
-300
-300
-300
-300
-300
-300
-300
-300
-300
-300
-300
-300
-300
-300
-300
100
83.715
68.4988
55.2083
44.3485
36.039
30.0787
26.066
23.5277
22.0186
21.178
20.749
20.5724
20.5739
20.7541
21.1888
22.0384
23.5615
26.1192
30.1557
36.1407
44.4686
55.3316
68.6024
83.7748
100
100
83.7747
68.6022
55.3312
44.4681
36.1402
30.1552
26.1187
23.561
22.0379
21.1882
20.7534
20.5726
20.5698
20.7439
21.1681
22.0003
23.4962
26.0152
30.0032
35.9368
44.2245
55.0775
68.3861
83.6488
100
-300
-300
-300
-300
-300
-300
-300
-300
-300
-300
-300
-300
-300
-300
-300
-300
-300
-300
-300
-300
-300
-300
-300
-300
100
83.6488
68.3861
55.0775
44.2245
35.9368
30.0032
26.0152
23.4962
22.0003
21.1681
20.7439
20.5699
20.5727
20.7535
21.1884
22.0381
23.5612
26.1188
30.1554
36.1404
44.4683
55.3313
68.6022
83.7747
100
100
83.7747
68.6022
55.3312
44.4681
36.1402
30.1552
26.1186
23.561
22.0378
21.1879
20.7526
20.5708
20.5658
20.7354
21.1513
21.9689
23.4411
25.9252
29.8675
35.7496
43.9925
54.8273
68.1656
83.5167
100
-300
-300
-300
-300
-300
-300
-300
-300
-300
-300
-300
-300
-300
-300
-300
-300
-300
-300
-300
-300
-300
-300
-300
-300
100
83.5167
68.1656
54.8273
43.9925
35.7496
29.8675
25.9252
23.4411
21.9689
21.1513
20.7355
20.5659
20.5708
20.7526
21.188
22.0379
23.561
26.1187
30.1553
36.1403
44.4682
55.3312
68.6022
83.7747
100
100
83.7747
68.6022
55.3312
44.4681
36.1402
30.1552
26.1186
23.5609
22.0376
21.1875
20.7514
20.568
20.5595
20.722
21.1244
21.9179
23.3506
25.7753
29.6368
35.4241
43.5783
54.3666
67.7462
83.2582
100
-300
-300
-300
-300
-300
-300
-300
-300
-300
-300
-300
-300
-300
-300
-300
-300
-300
-300
-300
-300
-300
-300
-300
-300
100
83.2582
67.7462
54.3666
43.5783
35.4241
29.6368
25.7753
23.3506
21.9179
21.1244
20.722
20.5595
20.568
20.7514
21.1875
22.0376
23.5609
26.1186
30.1552
36.1403
44.4682
55.3312
68.6022
83.7747
100
100
83.7747
68.6022
55.3312
44.4681
36.1402
30.1552
26.1186
23.5608
22.0374
21.1868
20.7497
20.5639
20.5502
20.7021
21.084
21.8407
23.2114
25.5404
29.2676
34.8886
42.8733
53.5496
66.9662
82.7537
100
-300
-300
-300
-300
-300
-300
-300
-300
-300
-300
-300
-300
-300
-300
-300
-300
-300
-300
-300
-300
-300
-300
-300
-300
100
82.7537
66.9662
53.5496
42.8733
34.8886
29.2676
25.5404
23.2114
21.8407
21.084
20.7021
20.5502
20.5639
20.7497
21.1868
22.0374
23.5608
26.1186
30.1552
36.1402
44.4681
55.3312
68.6022
83.7747
100
100
83.7747
68.6022
55.3312
44.4681
36.1402
30.1552
26.1185
23.5607
22.037
21.1858
20.7473
20.5583
20.5375
20.6745
21.0276
21.7314
23.0117
25.1967
28.7138
34.0592
41.7346
52.1554
65.5389
81.7517
100
-300
-300
-300
-300
-300
-300
-300
-300
-300
-300
-300
-300
-300
-300
-300
-300
-300
-300
-300
-300
-300
-300
-300
-300
100
81.7517
65.5389
52.1554
41.7346
34.0592
28.7138
25.1967
23.0117
21.7314
21.0276
20.6745
20.5375
20.5583
20.7473
21.1858
22.037
23.5607
26.1185
30.1552
36.1402
44.4681
55.3312
68.6022
83.7747
100
100
83.7747
68.6022
55.3312
44.4681
36.1402
30.1552
26.1185
23.5605
22.0366
21.1847
20.7444
20.5511
20.5212
20.6391
20.9544
21.5881
22.7457
24.73
27.942
32.8613
40.0059
49.8828
62.9618
79.6622
100
-300
-300
-300
-300
-300
-300
-300
-300
-300
-300
-300
-300
-300
-300
-300
-300
-300
-300
-300
-300
-300
-300
-300
-300
100
79.6622
62.9618
49.8828
40.0059
32.8613
27.942
24.73
22.7457
21.5881
20.9544
20.6391
20.5212
20.5511
20.7444
21.1847
22.0366
23.5605
26.1185
30.1552
36.1402
44.4681
55.3312
68.6022
83.7747
100
100
83.7747
68.6022
55.3312
44.4681
36.1402
30.1552
26.1184
23.5603
22.0361
21.1833
20.7409
20.5428
20.502
20.5971
20.8668
21.4144
22.4191
24.1467
26.9531
31.2712
37.5849
46.4167
58.4221
74.9046
100
100
100
100
100
100
100
100
100
100
100
100
100
100
100
100
100
100
100
100
100
100
100
100
100
100
74.9046
58.4221
46.4167
37.5849
31.2712
26.9531
24.1467
22.4191
21.4144
20.8668
20.5971
20.502
20.5428
20.7409
21.1833
22.0361
23.5603
26.1184
30.1552
36.1402
44.4681
55.3312
68.6022
83.7747
100
100
83.7747
68.6022
55.3312
44.4681
36.1402
30.1551
26.1184
23.5601
22.0355
21.1818
20.7372
20.5337
20.481
20.5509
20.77
21.2212
22.0517
23.4814
25.8039
29.3716
34.5616
41.7229
51.0997
62.6245
74.9046
79.6622
81.7517
82.7537
83.2582
83.5167
83.6488
83.715
83.7473
83.7626
83.7695
83.7725
83.7735
83.7735
83.7725
83.7695
83.7626
83.7473
83.715
83.6488
83.5167
83.2582
82.7537
81.7517
79.6622
74.9046
62.6245
51.0997
41.7229
34.5616
29.3716
25.8039
23.4814
22.0517
21.2212
20.77
20.5509
20.481
20.5337
20.7372
21.1818
22.0355
23.5601
26.1184
30.1551
36.1402
44.4681
55.3312
68.6022
83.7747
100
100
83.7747
68.6022
55.3312
44.4681
36.1402
30.1551
26.1183
23.5599
22.0349
21.1803
20.7334
20.5246
20.4599
20.5042
20.6716
21.0239
21.6744
22.7933
24.6048
27.3697
31.3439
36.7058
43.4367
51.0997
58.4221
62.9618
65.5389
66.9662
67.7462
68.1656
68.3861
68.4988
68.5544
68.5809
68.593
68.5982
68.6001
68.6001
68.5982
68.593
68.5809
68.5544
68.4988
68.3861
68.1656
67.7462
66.9662
65.5389
62.9618
58.4221
51.0997
43.4367
36.7058
31.3439
27.3697
24.6048
22.7933
21.6744
21.0239
20.6716
20.5042
20.4599
20.5246
20.7334
21.1803
22.0349
23.5599
26.1183
30.1551
36.1402
44.4681
55.3312
68.6022
83.7747
100
100
83.7747
68.6022
55.3312
44.4681
36.1402
30.1551
26.1182
23.5597
22.0344
21.179
20.7299
20.5161
20.4402
20.4607
20.5798
20.8392
21.3204
22.1465
23.4772
25.4908
28.3461
32.1178
36.7058
41.7229
46.4167
49.8828
52.1554
53.5496
54.3666
54.8273
55.0775
55.2083
55.2739
55.3056
55.3201
55.3264
55.3287
55.3287
55.3264
55.3201
55.3056
55.2739
55.2083
55.0775
54.8273
54.3666
53.5496
52.1554
49.8828
46.4167
41.7229
36.7058
32.1178
28.3461
25.4908
23.4772
22.1465
21.3204
20.8392
20.5798
20.4607
20.4402
20.5161
20.7299
21.179
22.0344
23.5597
26.1182
30.1551
36.1402
44.4681
55.3312
68.6022
83.7747
100
100
83.7747
68.6022
55.3312
44.4681
36.1402
30.1551
26.1182
23.5596
22.034
21.1778
20.727
20.5089
20.4234
20.4233
20.5008
20.6803
21.016
21.5911
22.5125
23.8948
25.8308
28.3461
31.3439
34.5616
37.5849
40.0059
41.7346
42.8733
43.5783
43.9925
44.2245
44.3485
44.4118
44.4427
44.4571
44.4633
44.4657
44.4657
44.4633
44.4571
44.4427
44.4118
44.3485
44.2245
43.9925
43.5783
42.8733
41.7346
40.0059
37.5849
34.5616
31.3439
28.3461
25.8308
23.8948
22.5125
21.5911
21.016
20.6803
20.5008
20.4233
20.4234
20.5089
20.727
21.1778
22.034
23.5596
26.1182
30.1551
36.1402
44.4681
55.3312
68.6022
83.7747
100
100
83.7747
68.6022
55.3312
44.4682
36.1402
30.1551
26.1182
23.5595
22.0337
21.1769
20.7247
20.5032
20.41
20.3936
20.4381
20.5541
20.7747
21.1525
21.7548
22.6514
23.8948
25.4908
27.3697
29.3716
31.2712
32.8613
34.0592
34.8886
35.4241
35.7496
35.9368
36.039
36.0921
36.1183
36.1306
36.1361
36.1381
36.1381
36.1361
36.1306
36.1183
36.0921
36.039
35.9368
35.7496
35.4241
34.8886
34.0592
32.8613
31.2712
29.3716
27.3697
25.4908
23.8948
22.6514
21.7548
21.1525
20.7747
20.5541
20.4381
20.3936
20.41
20.5032
20.7247
21.1769
22.0337
23.5595
26.1182
30.1551
36.1402
44.4682
55.3312
68.6022
83.7747
100
100
83.7747
68.6022
55.3313
44.4683
36.1404
30.1552
26.1183
23.5596
22.0336
21.1764
20.723
20.4991
20.4002
20.3718
20.3919
20.4613
20.5977
20.832
21.2041
21.7548
22.5125
23.4772
24.6048
25.8039
26.9531
27.942
28.7138
29.2676
29.6368
29.8675
30.0032
30.0787
30.1185
30.1384
30.1478
30.152
30.1535
30.1535
30.152
30.1478
30.1384
30.1185
30.0787
30.0032
29.8675
29.6368
29.2676
28.7138
27.942
26.9531
25.8039
24.6048
23.4772
22.5125
21.7548
21.2041
20.832
20.5977
20.4613
20.3919
20.3718
20.4002
20.4991
20.723
21.1764
22.0336
23.5596
26.1183
30.1552
36.1404
44.4683
55.3313
68.6022
83.7747
100
100
83.7748
68.6024
55.3316
44.4686
36.1407
30.1556
26.1187
23.5599
22.0338
21.1764
20.7223
20.4965
20.3939
20.3571
20.3605
20.3981
20.4772
20.6144
20.832
21.1525
21.5911
22.1465
22.7933
23.4814
24.1467
24.73