# vtk DataFile Version 2.0
LBE two cylinders
ASCII
DATASET STRUCTURED_POINTS
DIMENSIONS 76 76 1
ASPECT_RATIO 1 1 1
ORIGIN 0 0 0
POINT_DATA 5776
SCALARS temp double 1
LOOKUP_TABLE default
100
100
100
100
100
100
100
100
100
100
100
100
100
100
100
100
100
100
100
100
100
100
100
100
100
100
-300
-300
-300
-300
-300
-300
-300
-300
-300
-300
-300
-300
-300
-300
100
100
100
100
100
100
100
100
100
100
100
100
100
100
100
100
100
100
100
100
100
100
100
100
100
100
-300
-300
-300
-300
-300
-300
-300
-300
-300
-300
100
98.2243
96.5107
94.9149
93.4805
92.2366
91.1958
90.3566
89.706
89.2239
88.8879
88.6773
88.5762
88.5762
88.6773
88.8879
89.2239
89.706
90.3566
91.1958
92.2366
93.4805
94.9149
96.5107
98.2243
100
-300
-300
-300
-300
-300
-300
-300
-300
-300
-300
-300
-300
-300
-300
100
98.2244
96.5109
94.9151
93.4808
92.2369
91.1962
90.357
89.7064
89.2243
88.8883
88.6776
88.5764
88.5764
88.6774
88.8881
89.224
89.706
90.3567
91.1959
92.2366
93.4805
94.9149
96.5107
98.2243
100
-300
-300
-300
-300
-300
-300
-300
-300
-300
-300
100
96.5107
93.1433
90.0073
87.1888
84.7443
82.6992
81.0501
79.7716
78.8243
78.1642
77.7502
77.5516
77.5516
77.7502
78.1642
78.8243
79.7716
81.0501
82.6992
84.7443
87.1888
90.0073
93.1433
96.5107
100
-300
-300
-300
-300
-300
-300
-300
-300
-300
-300
-300
-300
-300
-300
100
96.5109
93.1438
90.0079
87.1896
84.7452
82.7002
81.0512
79.7726
78.8253
78.1651
77.751
77.5523
77.5522
77.7507
78.1645
78.8246
79.7718
81.0503
82.6993
84.7444
87.1888
90.0073
93.1433
96.5107
100
-300
-300
-300
-300
-300
-300
-300
-300
-300
-300
100
94.9146
90.0069
85.4364
81.3286
77.7661
74.7856
72.3823
70.519
69.1385
68.1764
67.5732
67.2837
67.2837
67.5732
68.1764
69.1385
70.519
72.3823
74.7856
77.7661
81.3286
85.4364
90.0069
94.9146
100
-300
-300
-300
-300
-300
-300
-300
-300
-300
-300
-300
-300
-300
-300
100
94.9151
90.0079
85.4378
81.3304
77.7681
74.7878
72.3846
70.5213
69.1407
68.1785
67.575
67.2853
67.285
67.5743
68.1773
69.1391
70.5195
72.3826
74.7858
77.7662
81.3287
85.4364
90.0069
94.9146
100
-300
-300
-300
-300
-300
-300
-300
-300
-300
-300
100
93.4797
87.1873
81.3272
76.0605
71.4929
67.6716
64.5903
62.2015
60.4317
59.1982
58.4249
58.0538
58.0538
58.4249
59.1982
60.4317
62.2015
64.5903
67.6716
71.4929
76.0605
81.3272
87.1873
93.4797
100
-300
-300
-300
-300
-300
-300
-300
-300
-300
-300
-300
-300
-300
-300
100
93.4808
87.1895
81.3303
76.0643
71.4973
67.6764
64.5953
62.2064
60.4364
59.2026
58.4288
58.0572
58.0566
58.4272
59.2
60.433
62.2025
64.591
67.672
71.4932
76.0606
81.3273
87.1873
93.4797
100
-300
-300
-300
-300
-300
-300
-300
-300
-300
-300
100
92.2345
84.7405
77.7613
71.489
66.0493
61.4984
57.829
54.9842
52.8766
51.4078
50.487
50.045
50.045
50.487
51.4078
52.8766
54.9842
57.829
61.4984
66.0493
71.489
77.7613
84.7405
92.2345
100
-300
-300
-300
-300
-300
-300
-300
-300
-300
-300
-300
-300
-300
-300
100
92.2368
84.7449
77.7677
71.497
66.0585
61.5084
57.8393
54.9944
52.8864
51.4169
50.495
50.052
50.0509
50.4917
51.4115
52.8794
54.9862
57.8304
61.4993
66.0498
71.4893
77.7615
84.7406
92.2345
100
-300
-300
-300
-300
-300
-300
-300
-300
-300
-300
100
91.1912
82.6905
74.7739
67.659
61.4888
56.3268
52.1648
48.9381
46.5477
44.8818
43.8374
43.3362
43.3362
43.8374
44.8818
46.5477
48.9381
52.1648
56.3268
61.4888
67.659
74.7739
82.6905
91.1912
100
-300
-300
-300
-300
-300
-300
-300
-300
-300
-300
-300
-300
-300
-300
100
91.1958
82.6995
74.7868
67.6751
61.5073
56.3469
52.1855
48.9587
46.5674
44.9
43.8537
43.3502
43.3479
43.8469
44.8892
46.5533
48.9422
52.1676
56.3287
61.4899
67.6597
74.7742
82.6907
91.1913
100
-300
-300
-300
-300
-300
-300
-300
-300
-300
-300
100
90.3473
81.0321
72.3571
64.5607
57.7996
52.1434
47.5829
44.0474
41.4283
39.6031
38.4588
37.9097
37.9097
38.4588
39.6031
41.4283
44.0474
47.5829
52.1434
57.7996
64.5607
72.3571
81.0321
90.3473
100
-300
-300
-300
-300
-300
-300
-300
-300
-300
-300
-300
-300
-300
-300
100
90.3563
81.0497
72.3822
64.5922
57.8358
52.1826
47.6235
44.0878
41.4669
39.6387
38.4907
37.9372
37.9327
38.4774
39.6176
41.4392
44.0554
47.5883
52.1469
57.8018
64.562
72.3577
81.0324
90.3474
100
-300
-300
-300
-300
-300
-300
-300
-300
-300
-300
100
89.6878
79.7364
70.4688
62.14
54.9172
48.8749
44.0032
40.2266
37.4288
35.4792
34.257
33.6704
33.6704
34.257
35.4792
37.4288
40.2266
44.0032
48.8749
54.9172
62.14
70.4688
79.7364
89.6878
100
-300
-300
-300
-300
-300
-300
-300
-300
-300
-300
-300
-300
-300
-300
100
89.7049
79.7697
70.5166
62.1998
54.9861
48.9497
44.0806
40.3035
37.5024
35.5473
34.3178
33.723
33.7144
34.2925
35.507
37.4497
40.2416
44.0135
48.8816
54.9212
62.1422
70.4699
79.7368
89.688
100
-300
-300
-300
-300
-300
-300
-300
-300
-300
-300
100
89.1901
78.7583
69.0435
60.3128
52.7416
46.4079
41.3015
37.3429
34.4104
32.367
31.0859
30.4712
30.4712
31.0859
32.367
34.4104
37.3429
41.3015
46.4079
52.7416
60.3128
69.0435
78.7583
89.1901
100
-300
-300
-300
-300
-300
-300
-300
-300
-300
-300
-300
-300
-300
-300
100
89.2216
78.8198
69.1317
60.4233
52.869
46.5463
41.4448
37.4854
34.5469
32.4932
31.1988
30.5688
30.5528
31.1519
32.4184
34.449
37.3707
41.3205
46.4202
52.7489
60.3167
69.0453
78.759
89.1902
100
-300
-300
-300
-300
-300
-300
-300
-300
-300
-300
100
88.827
78.0448
68.0038
58.9801
51.1548
44.6087
39.331
35.2399
32.2092
30.0974
28.7734
28.1381
28.1381
28.7734
30.0974
32.2092
35.2399
39.331
44.6087
51.1548
58.9801
68.0038
78.0448
88.827
100
-300
-300
-300
-300
-300
-300
-300
-300
-300
-300
-300
-300
-300
-300
100
88.8836
78.1552
68.1622
59.1786
51.3838
44.8576
39.589
35.4965
32.4551
30.3249
28.977
28.3142
28.2854
28.8924
30.19
32.2786
35.2896
39.3649
44.6304
51.1675
58.9867
68.0067
78.0458
88.8271
100
-300
-300
-300
-300
-300
-300
-300
-300
-300
-300
100
88.571
77.5418
67.2708
58.0404
50.0361
43.3402
37.9419
33.7573
30.6575
28.4975
27.1434
26.4936
26.4936
27.1434
28.4975
30.6575
33.7573
37.9419
43.3402
50.0361
58.0404
67.2708
77.5418
88.571
100
-300
-300
-300
-300
-300
-300
-300
-300
-300
-300
-300
-300
-300
-300
100
88.6697
77.7343
67.5472
58.387
50.4362
43.7754
38.3933
34.2066
31.0884
28.8964
27.5004
26.8024
26.7518
27.3518
28.6596
30.7786
33.8439
38.0005
43.3773
50.0574
58.0512
67.2751
77.5428
88.5709
100
-300
-300
-300
-300
-300
-300
-300
-300
-300
-300
100
88.3964
77.1989
66.7711
57.3999
49.2734
42.4756
36.9951
32.7468
29.5998
27.407
26.0324
25.3727
25.3727
26.0324
27.407
29.5998
32.7468
36.9951
42.4756
49.2734
57.3999
66.7711
77.1989
88.3964
100
-300
-300
-300
-300
-300
-300
-300
-300
-300
-300
-300
-300
-300
-300
100
88.5637
77.525
67.2396
57.9877
49.9526
43.2149
37.7626
33.5115
30.3338
28.087
26.641
25.8992
25.8127
26.3871
27.6825
29.8052
32.8929
37.0932
42.5369
49.3079
57.4163
66.7767
77.1994
88.3957
100
-300
-300
-300
-300
-300
-300
-300
-300
-300
-300
100
88.2813
76.9727
66.4416
56.9775
48.7706
41.9055
36.3708
32.0806
28.9025
26.6881
25.3
24.6338
24.6338
25.3
26.6881
28.9025
32.0806
36.3708
41.9055
48.7706
56.9775
66.4416
76.9727
88.2813
100
-300
-300
-300
-300
-300
-300
-300
-300
-300
-300
-300
-300
-300
-300
100
88.5566
77.5095
67.2131
57.9463
49.8908
43.1262
37.6393
33.3457
30.1179
27.8148
26.3087
25.5063
25.3624
25.8868
27.143
29.2405
32.3197
36.5301
42.0033
48.8238
57.0009
66.4476
76.9711
88.2788
100
-300
-300
-300
-300
-300
-300
-300
-300
-300
-300
100
88.2079
76.8284
66.2313
56.708
48.4498
41.5417
35.9725
31.6555
28.4577
26.2296
24.8328
24.1625
24.1625
24.8328
26.2296
28.4577
31.6555
35.9725
41.5417
48.4498
56.708
66.2313
76.8284
88.2079
100
-300
-300
-300
-300
-300
-300
-300
-300
-300
-300
-300
-300
-300
-300
100
88.648
77.6868
67.4658
58.2594
50.2454
43.5008
38.0106
33.6905
30.4144
28.0446
26.4582
25.5679
25.3352
25.7758
26.9587
28.9975
32.0352
36.2227
41.6923
48.5282
56.7387
66.2348
76.8211
88.2013
100
-300
-300
-300
-300
-300
-300
-300
-300
-300
-300
100
88.1625
76.7393
66.1014
56.5415
48.2516
41.3171
35.7266
31.3931
28.1831
25.9464
24.5443
23.8715
23.8715
24.5443
25.9464
28.1831
31.3931
35.7266
41.3171
48.2516
56.5415
66.1014
76.7393
88.1625
100
-300
-300
-300
-300
-300
-300
-300
-300
-300
-300
-300
-300
-300
-300
100
88.8459
78.0728
68.0206
58.9555
51.049
44.373
38.9102
34.5761
31.247
28.7905
27.0916
26.0729
25.706
26.0167
27.0816
29.0197
31.9772
36.1065
41.54
48.3611
56.5765
66.0953
76.7191
88.1474
100
-300
-300
-300
-300
-300
-300
-300
-300
-300
-300
100
88.1354
76.686
66.0238
56.442
48.1331
41.1828
35.5795
31.2362
28.0189
25.7771
24.3718
23.6975
23.6975
24.3718
25.7771
28.0189
31.2362
35.5795
41.1828
48.1331
56.442
66.0238
76.686
88.1354
100
-300
-300
-300
-300
-300
-300
-300
-300
-300
-300
-300
-300
-300
-300
100
89.1665
78.6987
68.9228
60.0923
52.369
45.8173
40.4159
36.0791
32.6865
30.1129
28.2552
27.0508
26.4875
26.6056
27.4931
29.2767
32.1067
36.1369
41.4992
48.2757
56.4716
65.9933
76.6391
88.1036
100
-300
-300
-300
-300
-300
-300
-300
-300
-300
-300
100
88.1197
76.6551
65.9788
56.3843
48.0645
41.105
35.4943
31.1453
27.9237
25.679
24.2719
23.5967
23.5967
24.2719
25.679
27.9237
31.1453
35.4943
41.105
48.0645
56.3843
65.9788
76.6551
88.1197
100
-300
-300
-300
-300
-300
-300
-300
-300
-300
-300
-300
-300
-300
-300
100
89.6311
79.6071
70.2345
61.7499
54.3005
47.9407
42.642
38.3163
34.8454
32.1136
30.0339
28.5662
27.7224
27.5645
28.1974
29.7579
32.4015
36.2831
41.5337
48.2338
56.3864
65.8958
76.5565
88.0566
100
-300
-300
-300
-300
-300
-300
-300
-300
-300
-300
100
88.1108
76.6378
65.9535
56.3519
48.0259
41.0613
35.4465
31.0942
27.8703
25.624
24.2158
23.5401
23.5401
24.2158
25.624
27.8703
31.0942
35.4465
41.0613
48.0259
56.3519
65.9535
76.6378
88.1108
100
-300
-300
-300
-300
-300
-300
-300
-300
-300
-300
-300
-300
-300
-300
100
90.2642
80.846
72.0265
64.0197
56.9546
50.8707
45.7287
41.4341
37.869
34.9266
32.5419
30.7078
29.4729
28.9316
29.2116
30.4635
32.8482
36.5213
41.6119
48.1986
56.283
65.7677
76.4435
87.991
100
-300
-300
-300
-300
-300
-300
-300
-300
-300
-300
100
88.106
76.6283
65.9397
56.3343
48.0049
41.0375
35.4204
31.0664
27.8413
25.594
24.1853
23.5093
23.5093
24.1853
25.594
27.8413
31.0664
35.4204
41.0375
48.0049
56.3343
65.9397
76.6283
88.106
100
-300
-300
-300
-300
-300
-300
-300
-300
-300
-300
-300
-300
-300
-300
100
91.0882
82.4603
74.3659
66.9914
60.4423
54.739
49.8263
45.5966
41.9246
38.709
35.9118
33.5763
31.8078
30.7475
30.5543
31.3945
33.434
36.8273
41.7003
48.1295
56.1163
65.5647
76.264
87.8859
100
-300
-300
-300
-300
-300
-300
-300
-300
-300
-300
100
88.1035
76.6233
65.9325
56.325
47.9939
41.0249
35.4067
31.0518
27.8259
25.5782
24.1692
23.4931
23.4931
24.1692
25.5782
27.8259
31.0518
35.4067
41.0249
47.9939
56.325
65.9325
76.6233
88.1035
100
-300
-300
-300
-300
-300
-300
-300
-300
-300
-300
-300
-300
-300
-300
100
92.1196
84.4834
77.3038
70.7351
64.8557
59.6625
55.078
50.9711
47.1935
43.6342
40.2838
37.2685
34.7842
33.0394
32.2313
32.5418
34.1383
37.1701
41.7576
47.9751
55.8274
65.2256
75.9646
87.7095
100
-300
-300
-300
-300
-300
-300
-300
-300
-300
-300
100
88.1022
76.6208
65.9287
56.3202
47.9882
41.0185
35.3996
31.0443
27.8181
25.5701
24.161
23.4848
23.4848
24.161
25.5701
27.8181
31.0443
35.3996
41.0185
47.9882
56.3202
65.9287
76.6208
88.1022
100
-300
-300
-300
-300
-300
-300
-300
-300
-300
-300
-300
-300
-300
-300
100
93.3636
86.9266
80.8601
75.2834
70.2462
65.7201
61.6001
57.7169
53.8696
49.8959
45.7968
41.8574
38.4255
35.8012
34.2214
33.8763
34.9259
37.5072
41.731
47.6695
55.3363
64.6614
75.4617
87.4079
100
-300
-300
-300
-300
-300
-300
-300
-300
-300
-300
100
88.1016
76.6195
65.9269
56.3179
47.9854
41.0153
35.3961
31.0405
27.8141
25.5661
24.1569
23.4806
23.4806
24.1569
25.5661
27.8141
31.0405
35.3961
41.0153
47.9854
56.3179
65.9269
76.6195
88.1016
100
-300
-300
-300
-300
-300
-300
-300
-300
-300
-300
-300
-300
-300
-300
100
94.8101
89.7713
85.0113
80.6139
76.6024
72.9274
69.4574
65.9733
62.1745
57.7425
52.5828
47.3621
42.6897
38.9702
36.4616
35.3407
35.7434
37.7837
41.5564
47.131
54.5369
63.7419
74.6182
86.8828
100
-300
-300
-300
-300
-300
-300
-300
-300
-300
-300
100
88.1012
76.6189
65.926
56.3167
47.984
41.0138
35.3944
31.0387
27.8123
25.5642
24.1549
23.4786
23.4786
24.1549
25.5642
27.8123
31.0387
35.3944
41.0138
47.984
56.3167
65.926
76.6189
88.1012
100
-300
-300
-300
-300
-300
-300
-300
-300
-300
-300
-300
-300
-300
-300
100
96.4313
92.9635
89.6807
86.6343
83.8286
81.2066
78.6294
75.8398
72.3966
67.6046
60.75
53.6872
47.4222
42.4016
38.836
36.8464
36.521
37.9368
41.1649
46.2684
53.2972
62.2794
73.201
85.9341
100
-300
-300
-300
-300
-300
-300
-300
-300
-300
-300
100
88.1011
76.6186
65.9256
56.3162
47.9834
41.013
35.3936
31.0379
27.8114
25.5632
24.1539
23.4777
23.4777
24.1539
25.5632
27.8114
31.0379
35.3936
41.013
47.9834
56.3162
65.9256
76.6186
88.1011
100
-300
-300
-300
-300
-300
-300
-300
-300
-300
-300
-300
-300
-300
-300
100
98.1814
96.4131
94.7367
93.1758
91.7277
90.3519
88.9486
87.3037
84.9287
80.5441
70.2584
60.4768
52.2877
45.8481
41.1758
38.2805
37.1813
37.9074
40.4972
44.999
51.476
60.0239
70.8083
84.0984
100
-300
-300
-300
-300
-300
-300
-300
-300
-300
-300
100
88.101
76.6185
65.9254
56.3159
47.9831
41.0127
35.3933
31.0375
27.811
25.5628
24.1535
23.4773
23.4773
24.1535
25.5628
27.811
31.0375
35.3933
41.0127
47.9831
56.3159
65.9254
76.6185
88.101
100
-300
-300
-300
-300
-300
-300
-300
-300
-300
-300
-300
-300
-300
-300
100
100
100
100
100
100
100
100
100
100
100
80.1391
66.7915
56.7112
48.9753
43.2841
39.5263
37.6563
37.6563
39.5263
43.284
48.9752
56.711
66.7913
80.1389
100
100
100
100
100
100
100
100
100
100
100
100
88.101
76.6184
65.9253
56.3158
47.9829
41.0126
35.3931
31.0373
27.8108
25.5626
24.1533
23.4771
23.4771
24.1533
25.5626
27.8108
31.0373
35.3931
41.0125
47.9829
56.3158
65.9253
76.6184
88.101
100
-300
-300
-300
-300
-300
-300
-300
-300
-300
-300
-300
-300
-300
-300
-300
-300
-300
-300
-300
-300
-300
-300
-300
-300
100
84.0984
70.8082
60.0237
51.4757
44.9986
40.4967
37.9069
37.1807
38.2799
41.1752
45.8474
52.287
60.4761
70.2577
80.5435
84.9281
87.3031
88.9481
90.3515
91.7273
93.1755
94.7364
96.4129
98.1813
100
100
88.101
76.6184
65.9253
56.3158
47.9829
41.0125
35.3931
31.0372
27.8107
25.5626
24.1533
23.477
23.477
24.1533
25.5626
27.8107
31.0372
35.393
41.0125
47.9829
56.3158
65.9253
76.6184
88.101
100
-300
-300
-300
-300
-300
-300
-300
-300
-300
-300
-300
-300
-300
-300
-300
-300
-300
-300
-300
-300
-300
-300
-300
-300
100
85.9338
73.2005
62.2787
53.2963
46.2673
41.1636
37.9354
36.5195
36.8448
38.8344
42.4
47.4206
53.6855
60.7483
67.6029
72.3951
75.8383
78.6281
81.2053
83.8274
86.6333
89.68
92.963
96.431
100
100
88.101
76.6184
65.9252
56.3157
47.9828
41.0125
35.393
31.0372
27.8107
25.5625
24.1532
23.4769
23.4769
24.1532
25.5625
27.8107
31.0372
35.393
41.0124
47.9828
56.3157
65.9252
76.6184
88.101
100
-300
-300
-300
-300
-300
-300
-300
-300
-300
-300
-300
-300
-300
-300
-300
-300
-300
-300
-300
-300
-300
-300
-300
-300
100
86.8822
74.6171
63.7402
54.5348
47.1285
41.5535
37.7805
35.7401
35.3372
36.458
38.9666
42.686
47.3584
52.5791
57.7389
62.1711
65.97
69.4543
72.9245
76.5999
80.6118
85.0097
89.7702
94.8096
100
100
88.101
76.6184
65.9252
56.3157
47.9828
41.0125
35.393
31.0372
27.8107
25.5625
24.1532
23.4769
23.4769
24.1532
25.5625
27.8106
31.0372
35.393
41.0124
47.9828
56.3157
65.9252
76.6183
88.101
100
-300
-300
-300
-300
-300
-300
-300
-300
-300
-300
-300
-300
-300
-300
-300
-300
-300
-300
-300
-300
-300
-300
-300
-300
100
87.4067
75.4593
64.6579
55.3318
47.6641
41.7249
37.5005
34.9188
33.8689
34.2138
35.7934
38.4177
41.8495
45.7891
49.8883
53.8622
57.7098
61.5935
65.7141
70.2408
75.279
80.8566
86.9242
93.3624
100
100
88.101
76.6184
65.9252
56.3157
47.9828
41.0124
35.393
31.0372
27.8107
25.5625
24.1532
23.4769
23.4769
24.1532
25.5625
27.8106
31.0371
35.3929
41.0123
47.9827
56.3156
65.9251
76.6183
88.1009
100
-300
-300
-300
-300
-300
-300
-300
-300
-300
-300
-300
-300
-300
-300
-300
-300
-300
-300
-300
-300
-300
-300
-300
-300
100
87.707
75.9596
65.2182
55.818
47.964
41.745
37.1563
34.1237
32.5265
32.2155
33.0234
34.768
37.2523
40.2678
43.6185
47.1782
50.9565
55.0644
59.65
64.8446
70.7258
77.2966
84.4784
92.1171
100
100
88.101
76.6184
65.9252
56.3157
47.9828
41.0124
35.393
31.0372
27.8107
25.5625
24.1532
23.4769
23.4769
24.1531
25.5624
27.8105
31.037
35.3928
41.0122
47.9826
56.3155
65.925
76.6182
88.1009
100
-300
-300
-300
-300
-300
-300
-300
-300
-300
-300
-300
-300
-300
-300
-300
-300
-300
-300
-300
-300
-300
-300
-300
-300
100
87.8808
76.2539
65.5499
56.0975
48.1071
41.675
36.7996
33.4046
31.3637
30.5226
30.7153
31.7754
33.5438
35.8797
38.6775
41.894
45.5673
49.7988
54.714
60.4202
66.9728
74.3514
82.4504
91.0831
100
100
88.101
76.6184
65.9252
56.3157
47.9828
41.0124
35.393
31.0372
27.8106
25.5625
24.1531
23.4768
23.4768
24.153
25.5623
27.8103
31.0368
35.3925
41.0119
47.9823
56.3152
65.9248
76.618
88.1008
100
-300
-300
-300
-300
-300
-300
-300
-300
-300
-300
-300
-300
-300
-300
-300
-300
-300
-300
-300
-300
-300
-300
-300
-300
100
87.9809
76.4238
65.7389
56.2462
48.155
41.5626
36.4673
32.7908
30.4035
29.1499
28.8688
29.4096
30.6445
32.4792
34.8651
37.8093
41.3771
45.6752
50.8218
56.9115
63.9835
71.9982
80.8266
90.2543
100
100
88.101
76.6184
65.9252
56.3157
47.9828
41.0124
35.393
31.0372
27.8106
25.5624
24.1531
23.4767
23.4767
24.1528
25.562
27.81
31.0363
35.392
41.0113
47.9816
56.3146
65.9242
76.6176
88.1006
100
-300
-300
-300
-300
-300
-300
-300
-300
-300
-300
-300
-300
-300
-300
-300
-300
-300
-300
-300
-300
-300
-300
-300
-300
100
88.0375
76.519
65.8413
56.3166
48.1509
41.44
36.1808
32.2926
29.6442
28.0803
27.4454
27.6023
28.4462
29.9151
31.997
34.7323
38.2082
42.5407
47.8482
54.2189
61.6813
70.181
79.5704
89.6124
100
100
88.101
76.6184
65.9252
56.3157
47.9828
41.0124
35.393
31.0371
27.8106
25.5624
24.153
23.4766
23.4764
24.1524
25.5615
27.8093
31.0355
35.3909
41.0101
47.9804
56.3134
65.9232
76.6169
88.1002
100
-300
-300
-300
-300
-300
-300
-300
-300
-300
-300
-300
-300
-300
-300
-300
-300
-300
-300
-300
-300
-300
-300
-300
-300
100
88.0684
76.57
65.8927
56.3429
48.123
41.3266
35.9484
31.906
29.0671
27.2774
26.3862
26.2665
26.8299
28.0364
29.8982
32.4782
35.8801
40.2294
45.647
52.2187
59.9661
68.8242
78.6311
89.132
100
100
88.101
76.6184
65.9252
56.3157
47.9828
41.0124
35.393
31.0371
27.8105
25.5622
24.1528
23.4762
23.4759
24.1517
25.5604
27.8079
31.0338
35.3889
41.0079
47.978
56.3111
65.9212
76.6154
88.0994
100
-300
-300
-300
-300
-300
-300
-300
-300
-300
-300
-300
-300
-300
-300
-300
-300
-300
-300
-300
-300
-300
-300
-300
-300
100
88.0843
76.5952
65.9151
56.346
48.0875
41.2308
35.7689
31.6179
28.6445
26.6956
25.6241
25.3105
25.6776
26.7001
28.4063
30.8744
34.2201
38.5766
44.0683
50.7802
58.7297
67.8444
77.9518
88.7844
100
100
88.101
76.6184
65.9252
56.3157
47.9828
41.0124
35.3929
31.037
27.8104
25.562
24.1524
23.4756
23.475
24.1504
25.5586
27.8054
31.0306
35.3852
41.0036
47.9735
56.3067
65.9174
76.6125
88.0978
100
-300
-300
-300
-300
-300
-300
-300
-300
-300
-300
-300
-300
-300
-300
-300
-300
-300
-300
-300
-300
-300
-300
-300
-300
100
88.0912
76.6052
65.9209
56.3374
48.052
41.1542
35.6353
31.4103
28.3452
26.2877
25.0934
24.6476
24.8811
25.7779
27.3771
29.7671
33.072
37.431
42.9714
49.7785
57.8671
67.1598
77.4767
88.5411
100
100
88.101
76.6184
65.9252
56.3157
47.9828
41.0124
35.3928
31.0369
27.8101
25.5616
24.1517
23.4745
23.4733
24.1479
25.5552
27.801
31.0249
35.3783
40.9958
47.9652
56.2986
65.9103
76.6072
88.095
100
-300
-300
-300
-300
-300
-300
-300
-300
-300
-300
-300
-300
-300
-300
-300
-300
-300
-300
-300
-300
-300
-300
-300
-300
100
88.0925
76.6056
65.9163
56.322
48.0185
41.0936
35.5376
31.2641
28.1389
26.01
24.7347
24.2019
24.347
25.1604
26.6882
29.0254
32.302
36.6614
42.2331
49.103
57.2845
66.6968
77.1551
88.3763
100
100
88.101
76.6184
65.9252
56.3157
47.9828
41.0123
35.3927
31.0366
27.8097
25.5609
24.1505
23.4727
23.4704
24.1438
25.5493
27.7931
31.0148
35.3661
40.9819
47.9504
56.2841
65.8974
76.5976
88.0899
100
-300
-300
-300
-300
-300
-300
-300
-300
-300
-300
-300
-300
-300
-300
-300
-300
-300
-300
-300
-300
-300
-300
-300
-300
100
88.0891
76.5981
65.903
56.3004
47.9849
41.0431
35.4642
31.1609
27.9984
25.8248
24.4985
23.9104
23.9991
24.7591
26.2408
28.5436
31.8013
36.1602
41.7516
48.6619
56.9035
66.3937
76.9445
88.2683
100
100
88.101
76.6183
65.9252
56.3157
47.9827
41.0122
35.3925
31.0362
27.809
25.5597
24.1485
23.4695
23.4656
24.1367
25.5394
27.7796
30.9976
35.345
40.9577
47.9245
56.2585
65.8748
76.5806
88.0807
100
-300
-300
-300
-300
-300
-300
-300
-300
-300
-300
-300
-300
-300
-300
-300
-300
-300
-300
-300
-300
-300
-300
-300
-300
100
88.0807
76.5816
65.8791
56.2692
47.9459
40.9948
35.4036
31.0841
27.9008
25.7014
24.3451
23.7238
23.7783
24.5055
25.9586
28.2399
31.4855
35.8438
41.4474
48.3828
56.6622
66.2016
76.8108
88.1997
100
100
88.101
76.6183
65.9252
56.3156
47.9826
41.012
35.3921
31.0356
27.8079
25.5577
24.1453
23.4644
23.4578
24.1251
25.5229
27.7574
30.9688
35.3097
40.9168
47.8803
56.2146
65.8357
76.551
88.0648
100
-300
-300
-300
-300
-300
-300
-300
-300
-300
-300
-300
-300
-300
-300
-300
-300
-300
-300
-300
-300
-300
-300
-300
-300
100
88.0649
76.552
65.8386
56.2213
47.8931
40.9385
35.3436
31.0185
27.8267
25.6156
24.244
23.6051
23.6405
24.3489
25.7853
28.0538
31.2922
35.6501
41.2609
48.2117
56.5142
66.0836
76.7287
88.1576
100
100
88.101
76.6183
65.9251
56.3155
47.9825
41.0117
35.3916
31.0346
27.8061
25.5548
24.1404
23.4565
23.4455
24.1068
25.4967
27.7216
30.9221
35.252
40.8495
47.807
56.1411
65.7697
76.5008
88.0376
100
-300
-300
-300
-300
-300
-300
-300
-300
-300
-300
-300
-300
-300
-300
-300
-300
-300
-300
-300
-300
-300
-300
-300
-300
100
88.0378
76.5015
65.7715
56.145
47.8143
40.8618
35.271
30.9499
27.7602
25.5482
24.1727
23.5271
23.5541
24.2532
25.681
27.9426
31.1771
35.5349
41.1501
48.1099
56.4261
66.0134
76.6798
88.1325
100
100
88.101
76.6183
65.9251
56.3154
47.9822
41.0113
35.3908
31.0332
27.8036
25.5503
24.1329
23.4444
23.4267
24.0786
25.4563
27.6658
30.8487
35.1603
40.7415
47.688
56.0206
65.6604
76.417
87.9919
100
-300
-300
-300
-300
-300
-300
-300
-300
-300
-300
-300
-300
-300
-300
-300
-300
-300
-300
-300
-300
-300
-300
-300
-300
100
87.992
76.4175
65.6615
56.0228
47.6921
40.7482
35.1707
30.8638
27.6866
25.484
24.1142
23.4707
23.497
24.1937
25.6183
27.8771
31.1101
35.4682
41.0861
48.0512
56.3752
65.9729
76.6516
88.1181
100
100
88.1009
76.6183
65.925
56.3153
47.982
41.0107
35.3897
31.0311
27.7998
25.5438
24.122
23.4267
23.399
24.0368
25.3956
27.5815
30.7368
35.0189
40.5727
47.4998
55.8273
65.4828
76.2793
87.9162
100
-300
-300
-300
-300
-300
-300
-300
-300
-300
-300
-300
-300
-300
-300
-300
-300
-300
-300
-300
-300
-300
-300
-300
-300
100
87.9163
76.2796
65.4834
55.8285
47.5019
40.5763
35.0244
30.7447
27.5924
25.4102
24.0554
23.422
23.4542
24.1538
25.5794
27.8384
31.0715
35.4304
41.05
48.0182
56.3467
65.9502
76.6358
88.1099
100
100
88.1009
76.6182
65.9249
56.3151
47.9815
41.0099
35.3882
31.0282
27.7946
25.5347
24.1066
23.4016
23.3595
23.9768
25.3078
27.4582
30.5712
34.8069
40.3161
47.2088
55.5234
65.1988
76.0556
87.7919
100
-300
-300
-300
-300
-300
-300
-300
-300
-300
-300
-300
-300
-300
-300
-300
-300
-300
-300
-300
-300
-300
-300
-300
-300
100
87.792
76.0558
65.1992
55.5241
47.2099
40.3179
34.8097
30.5752
27.4638
25.3153
23.9863
23.3712
23.4157
24.1229
25.5529
27.8143
31.0488
35.4089
41.03
48.0001
56.3312
65.9378
76.6272
88.1055
100
100
88.1009
76.6182
65.9248
56.3148
47.981
41.0088
35.3861
31.0244
27.7876
25.5224
24.0858
23.3674
23.3052
23.8937
25.1851
27.2839
30.3339
34.4988
39.9365
46.77
55.0552
64.7511
75.6952
87.5882
100
-300
-300
-300
-300
-300
-300
-300
-300
-300
-300
-300
-300
-300
-300
-300
-300
-300
-300
-300
-300
-300
-300
-300
-300
100
87.5882
75.6952
64.7513
55.0555
46.7706
39.9374
34.5002
30.3359
27.2867
25.1888
23.8984
23.311
23.3744
24.0939
25.5315
27.7974
31.0346
35.3964
41.0188
47.9902
56.3228
65.9312
76.6226
88.1032
100
100
88.1009
76.6181
65.9246
56.3145
47.9803
41.0075
35.3834
31.0194
27.7786
25.5065
24.0586
23.3225
23.2334
23.7826
25.0195
27.046
30.0056
34.065
39.3915
46.1249
54.3477
64.0536
75.1155
87.2513
100
-300
-300
-300
-300
-300
-300
-300
-300
-300
-300
-300
-300
-300
-300
-300
-300
-300
-300
-300
-300
-300
-300
-300
-300
100
87.2513
75.1155
64.0537
54.3478
46.1252
39.3919
34.0657
30.0065
27.0474
25.0213
23.7849
23.2362
23.3259
24.0625
25.5109
27.7833
31.0243
35.3884
41.0123
47.9848
56.3184
65.9277
76.6203
88.102
100
100
88.1008
76.618
65.9245
56.3141
47.9795
41.0058
35.3802
31.0132
27.7673
25.4866
24.0245
23.2657
23.1419
23.64
24.8046
26.7334
29.5675
33.4756
38.6338
45.2024
53.3005
62.9779
74.1789
86.6816
100
-300
-300
-300
-300
-300
-300
-300
-300
-300
-300
-300
-300
-300
-300
-300
-300
-300
-300
-300
-300
-300
-300
-300
-300
100
86.6816
74.1789
62.978
53.3006
45.2025
38.634
33.4759
29.568
26.7341
24.8054
23.6411
23.1432
23.2673
24.0263
25.4887
27.7696
31.0156
35.3825
41.008
47.9816
56.3159
65.9259
76.619
88.1014
100
100
88.1008
76.6179
65.9242
56.3136
47.9785
41.0038
35.3763
31.0059
27.7539
25.4627
23.9832
23.1967
23.0299
23.4641
24.5368
26.3389
29.0061
32.7052
37.6184
43.9256
51.7886
61.3372
72.648
85.6734
100
-300
-300
-300
-300
-300
-300
-300
-300
-300
-300
-300
-300
-300
-300
-300
-300
-300
-300
-300
-300
-300
-300
-300
-300
100
85.6734
72.648
61.3372
51.7887
43.9257
37.6185
32.7053
29.0063
26.3392
24.5371
23.4645
23.0305
23.1974
23.9841
25.4636
27.7549
31.007
35.3774
41.0048
47.9794
56.3145
65.9249
76.6184
88.1011
100
100
88.1008
76.6178
65.924
56.3131
47.9774
41.0016
35.3719
30.9975
27.7385
25.4352
23.9354
23.1163
22.8986
23.256
24.217
25.8623
28.3175
31.7419
36.3157
42.2289
49.678
58.8792
70.1092
83.7457
100
-300
-300
-300
-300
-300
-300
-300
-300
-300
-300
-300
-300
-300
-300
-300
-300
-300
-300
-300
-300
-300
-300
-300
-300
100
83.7457
70.1092
58.8792
49.678
42.2289
36.3157
31.742
28.3176
25.8624
24.2171
23.2562
22.8989
23.1166
23.9358
25.4356
27.7389
30.998
35.3724
41.002
47.9778
56.3135
65.9243
76.618
88.1009
100
100
88.1008
76.6178
65.9238
56.3126
47.9763
40.9992
35.3672
30.9884
27.7216
25.4047
23.8824
23.0265
22.7511
23.0206
23.8521
25.3129
27.5133
30.597
34.7299
40.0916
46.8776
55.3341
65.8872
79.6057
100
100
100
100
100
100
100
100
100
100
100
100
100
100
100
100
100
100
100
100
100
100
100
100
100
100
79.6058
65.8872
55.3341
46.8777
40.0916
34.7299
30.597
27.5133
25.313
23.8522
23.0207
22.7512
23.0266
23.8825
25.4049
27.7218
30.9886
35.3674
40.9994
47.9765
56.3128
65.924
76.6179
88.1008
100
100
88.1008
76.6178
65.9237
56.3122
47.9753
40.9969
35.3624
30.979
27.7038
25.3726
23.826
22.9306
22.5926
22.7663
23.4554
24.7104
26.6222
29.3114
32.9169
37.583
43.45
50.6465
59.2721
69.2672
79.6057
83.7457
85.6734
86.6816
87.2513
87.5881
87.7919
87.9161
87.9915
88.0368
88.0632
88.0776
88.0839
88.0839
88.0776
88.0632
88.0368
87.9915
87.9161
87.7919
87.5881
87.2513
86.6816
85.6734
83.7457
79.6057
69.2672
59.2721
50.6465
43.45
37.583
32.9169
29.3114
26.6222
24.7104
23.4554
22.7664
22.5927
22.9306
23.8261
25.3727
27.7039
30.9791
35.3624
40.997
47.9753
56.3123
65.9238
76.6178
88.1008
100
100
88.1009
76.6179
65.9238
56.3121
47.9746
40.9949
35.3579
30.9699
27.6863
25.3404
23.7689
22.8328
22.4303
22.5045
23.0446
24.0831
25.6882
27.9537
30.9847
34.8814
39.7178
45.5099
52.1532
59.2721
65.8872
70.1092
72.648
74.1789
75.1155
75.6951
76.0555
76.279
76.4163
76.4993
76.548
76.5747
76.5864
76.5864
76.5747
76.548
76.4993
76.4163
76.279
76.0555
75.6951
75.1155
74.1789
72.648
70.1092
65.8872
59.2721
52.1532
45.5099
39.7178
34.8814
30.9847
27.9537
25.6882
24.0831
23.0446
22.5045
22.4303
22.8328
23.769
25.3404
27.6863
30.9699
35.358
40.995
47.9746
56.3121
65.9239
76.6179
88.1009
100
100
88.1011
76.6184
65.9244
56.3126
47.9746
40.9939
35.3545
30.962
27.6702
25.3099
23.7142
22.7381
22.2719
22.2477
22.6401
23.4631
24.7624
26.6043
29.0615
32.1947
36.029
40.5211
45.5099
50.6465
55.3341
58.8792
61.3372
62.9779
64.0536
64.751
65.1986
65.4823
65.6594
65.7677
65.8317
65.8669
65.8825
65.8825
65.8669
65.8317
65.7677
65.6594
65.4823
65.1986
64.751
64.0536
62.9779
61.3372
58.8792
55.3341
50.6465
45.5099
40.5211
36.029
32.1947
29.0615
26.6043
24.7624
23.4632
22.6401
22.2477
22.2719
22.7381
23.7142
25.31
27.6703
30.962
35.3546
40.9939
47.9747
56.3127
65.9244
76.6184
88.1011
100
100
88.1017
76.6196
65.926
56.3144
47.9763
40.9947
35.3533
30.9567
27.6574
25.2837
23.6651
22.6515
22.1254
22.0084
22.2617
22.8817
23.8932
25.3382
27.2619
29.6965
32.6393
36.029
39.7178
43.45
46.8776
49.678
51.7886
53.3005
54.3476
55.0551
55.5232
55.8267
56.0194
56.1387
56.21
56.2494
56.2669
56.2669
56.2494
56.21
56.1387
56.0194
55.8267
55.5232
55.0551
54.3476
53.3005
51.7886
49.678
46.8776
43.45
39.7178
36.029
32.6393
29.6965
27.2619
25.3382
23.8932
22.8817
22.2617
22.0084
22.1254
22.6515
23.6651
25.2837
27.6574
30.9567
35.3533
40.9947
47.9763
56.3144
65.926
76.6196
88.1017
100
100
88.103
76.622
65.9295
56.3187
47.9809
40.9989
35.3561
30.9561
27.6502
25.2646
23.6256
22.5783
21.9983
21.7981
21.9264
22.3646
23.1194
24.2126
25.669
27.5018
29.6965
32.1947
34.8814
37.583
40.0916
42.2289
43.9256
45.2024
46.1248
46.7699
47.2085
47.4992
47.6869
47.8046
47.8755
47.9152
47.9328
47.9328
47.9152
47.8755
47.8046
47.6869
47.4992
47.2085
46.7699
46.1248
45.2024
43.9256
42.2289
40.0916
37.583
34.8814
32.1947
29.6965
27.5018
25.669
24.2126
23.1194
22.3646
21.9264
21.7981
21.9983
22.5783
23.6256
25.2646
27.6502
30.9561
35.3561
40.999
47.9809
56.3187
65.9295
76.622
88.103
100
100
88.1055
76.6269
65.9366
56.3276
47.991
41.0096
35.3662
30.9638
27.6525
25.257
23.6006
22.5244
21.8982
21.6264
21.6475
21.9304
22.467
23.2637
24.3304
25.669
27.2619
29.0615
30.9847
32.9169
34.7299
36.3157
37.6184
38.6337
39.3914
39.9364
40.3158
40.5722
40.7403
40.8472
40.9122
40.9489
40.9652
40.9652
40.9489
40.9122
40.8472
40.7403
40.5722
40.3158
39.9364
39.3914
38.6337
37.6184
36.3157
34.7299
32.9169
30.9847
29.0615
27.2619
25.669
24.3304
23.2637
22.467
21.9304
21.6475
21.6264
21.8982
22.5244
23.6006
25.257
27.6526
30.9638
35.3662
41.0096
47.991
56.3276
65.9366
76.6269
88.1055
100
100
88.1103
76.6363
65.9502
56.3448
48.0113
41.0319
35.3892
30.9858
27.6709
25.2676
23.5973
22.4974
21.8332
21.5025
21.4358
21.5917
21.951
22.5084
23.2637
24.2126
25.3382
26.6043
27.9537
29.3114
30.597
31.7419
32.7052
33.4755
34.065
34.4987
34.8067
35.0184
35.1593
35.2499
35.3056
35.3372
35.3513