# vtk DataFile Version 2.0
LBE two cylinders
ASCII
DATASET STRUCTURED_POINTS
DIMENSIONS 76 76 1
ASPECT_RATIO 1 1 1
ORIGIN 0 0 0
POINT_DATA 5776
SCALARS temp double 1
LOOKUP_TABLE default
100
100
100
100
100
100
100
100
100
100
100
100
100
100
100
100
100
100
100
100
100
100
100
100
100
100
-300
-300
-300
-300
-300
-300
-300
-300
-300
-300
-300
-300
-300
-300
100
100
100
100
100
100
100
100
100
100
100
100
100
100
100
100
100
100
100
100
100
100
100
100
100
100
-300
-300
-300
-300
-300
-300
-300
-300
-300
-300
100
97.6261
95.363
93.3059
91.5229
90.0487
88.8859
88.0107
87.3826
86.9538
86.6783
86.5174
86.4439
86.4439
86.5174
86.6783
86.9538
87.3826
88.0107
88.8859
90.0487
91.5229
93.3059
95.363
97.6261
100
-300
-300
-300
-300
-300
-300
-300
-300
-300
-300
-300
-300
-300
-300
100
97.6261
95.363
93.3059
91.5229
90.0487
88.8859
88.0107
87.3826
86.9538
86.6783
86.5174
86.4439
86.4439
86.5174
86.6783
86.9538
87.3826
88.0107
88.8859
90.0487
91.5229
93.3059
95.363
97.6261
100
-300
-300
-300
-300
-300
-300
-300
-300
-300
-300
100
95.363
90.9424
86.9242
83.4413
80.5618
78.2905
76.5811
75.3542
74.5168
73.9787
73.6644
73.521
73.521
73.6644
73.9787
74.5168
75.3542
76.5811
78.2905
80.5618
83.4413
86.9242
90.9424
95.363
100
-300
-300
-300
-300
-300
-300
-300
-300
-300
-300
-300
-300
-300
-300
100
95.363
90.9424
86.9242
83.4414
80.5619
78.2906
76.5812
75.3543
74.5169
73.9787
73.6645
73.521
73.521
73.6645
73.9787
74.5168
75.3542
76.5811
78.2905
80.5618
83.4413
86.9242
90.9424
95.363
100
-300
-300
-300
-300
-300
-300
-300
-300
-300
-300
100
93.3059
86.9241
81.1235
76.0956
71.9389
68.6602
66.1927
64.4218
63.2131
62.4364
61.9829
61.7758
61.7758
61.9829
62.4364
63.2131
64.4218
66.1927
68.6602
71.9389
76.0956
81.1235
86.9241
93.3059
100
-300
-300
-300
-300
-300
-300
-300
-300
-300
-300
-300
-300
-300
-300
100
93.3059
86.9242
81.1236
76.0958
71.9391
68.6604
66.1929
64.422
63.2133
62.4365
61.983
61.7759
61.7759
61.9829
62.4364
63.2131
64.4218
66.1927
68.6602
71.9389
76.0956
81.1235
86.9241
93.3059
100
-300
-300
-300
-300
-300
-300
-300
-300
-300
-300
100
91.5228
83.4411
76.0954
69.7286
64.465
60.3134
57.189
54.9467
53.4164
52.4331
51.8589
51.5968
51.5968
51.8589
52.4331
53.4164
54.9467
57.189
60.3134
64.465
69.7286
76.0954
83.4411
91.5228
100
-300
-300
-300
-300
-300
-300
-300
-300
-300
-300
-300
-300
-300
-300
100
91.5229
83.4413
76.0958
69.729
64.4654
60.3138
57.1895
54.9472
53.4169
52.4334
51.8592
51.5971
51.597
51.8591
52.4332
53.4165
54.9468
57.189
60.3134
64.465
69.7286
76.0954
83.4411
91.5228
100
-300
-300
-300
-300
-300
-300
-300
-300
-300
-300
100
90.0484
80.5613
71.9382
64.4644
58.2858
53.4127
49.7455
47.1138
45.3178
44.1638
43.49
43.1824
43.1824
43.49
44.1638
45.3178
47.1138
49.7455
53.4127
58.2858
64.4644
71.9382
80.5613
90.0484
100
-300
-300
-300
-300
-300
-300
-300
-300
-300
-300
-300
-300
-300
-300
100
90.0487
80.5618
71.939
64.4654
58.2869
53.4139
49.7467
47.115
45.3189
44.1647
43.4908
43.1831
43.1829
43.4904
44.1641
45.318
47.1139
49.7456
53.4127
58.2858
64.4644
71.9382
80.5613
90.0484
100
-300
-300
-300
-300
-300
-300
-300
-300
-300
-300
100
88.8852
78.2892
68.6584
60.3113
53.411
47.9689
43.8737
40.9351
38.9296
37.6411
36.8889
36.5455
36.5455
36.8889
37.6411
38.9296
40.9351
43.8737
47.9689
53.411
60.3113
68.6584
78.2892
88.8852
100
-300
-300
-300
-300
-300
-300
-300
-300
-300
-300
-300
-300
-300
-300
100
88.8859
78.2905
68.6603
60.3137
53.4137
47.9718
43.8767
40.9379
38.9323
37.6435
36.8909
36.5472
36.5468
36.8899
37.6419
38.9302
40.9354
43.874
47.9691
53.4111
60.3113
68.6584
78.2892
88.8852
100
-300
-300
-300
-300
-300
-300
-300
-300
-300
-300
100
88.009
76.5778
66.1881
57.1835
49.7398
43.8694
39.4521
36.2824
34.1195
32.7299
31.9186
31.5483
31.5483
31.9186
32.7299
34.1195
36.2824
39.4521
43.8694
49.7398
57.1835
66.1881
76.5778
88.009
100
-300
-300
-300
-300
-300
-300
-300
-300
-300
-300
-300
-300
-300
-300
100
88.0107
76.581
66.1927
57.1891
49.7462
43.8762
39.459
36.2891
34.1257
32.7355
31.9235
31.5523
31.5515
31.9211
32.7316
34.1207
36.2833
39.4526
43.8697
49.74
57.1835
66.1881
76.5778
88.009
100
-300
-300
-300
-300
-300
-300
-300
-300
-300
-300
100
87.3787
75.3467
64.4111
54.9336
47.0992
40.9208
36.272
32.9364
30.6603
29.198
28.3444
27.9548
27.9548
28.3444
29.198
30.6603
32.9364
36.272
40.9208
47.0992
54.9336
64.4111
75.3467
87.3787
100
-300
-300
-300
-300
-300
-300
-300
-300
-300
-300
-300
-300
-300
-300
100
87.3824
75.3539
64.4214
54.9462
47.1136
40.9363
36.2877
32.9516
30.6745
29.2108
28.3554
27.9639
27.962
28.35
29.2021
30.6631
32.9382
36.2732
40.9215
47.0995
54.9337
64.4111
75.3467
87.3787
100
-300
-300
-300
-300
-300
-300
-300
-300
-300
-300
100
86.9454
74.5004
63.1895
53.3869
45.2841
38.8942
34.0863
30.6367
28.283
26.7709
25.8883
25.4853
25.4853
25.8883
26.7709
28.283
30.6367
34.0863
38.8942
45.2841
53.3869
63.1895
74.5004
86.9454
100
-300
-300
-300
-300
-300
-300
-300
-300
-300
-300
-300
-300
-300
-300
100
86.9535
74.5161
63.2119
53.4147
45.3156
38.9279
34.1207
30.6701
28.3142
26.7989
25.9124
25.5054
25.5013
25.9004
26.7798
28.2892
30.6408
34.0888
38.8956
45.2847
53.3871
63.1895
74.5003
86.9453
100
-300
-300
-300
-300
-300
-300
-300
-300
-300
-300
100
86.6605
73.944
62.3865
52.3702
44.091
37.5621
32.6498
29.1254
26.7207
25.176
24.2743
23.8627
23.8627
24.2743
25.176
26.7207
29.1254
32.6498
37.5621
44.091
52.3702
62.3865
73.944
86.6605
100
-300
-300
-300
-300
-300
-300
-300
-300
-300
-300
-300
-300
-300
-300
100
86.6776
73.9771
62.4337
52.4288
44.1576
37.6335
32.7225
29.1962
26.7869
25.2354
24.3256
23.9053
23.8966
24.3002
25.1949
26.7339
29.1341
32.6551
37.565
44.0923
52.3706
62.3863
73.9437
86.6603
100
-300
-300
-300
-300
-300
-300
-300
-300
-300
-300
100
86.4813
73.594
61.8813
51.7307
43.3406
36.7244
31.7465
28.1751
25.7384
24.1732
23.2595
22.8425
22.8425
23.2595
24.1732
25.7384
28.1751
31.7465
36.7244
43.3406
51.7307
61.8813
73.594
86.4813
100
-300
-300
-300
-300
-300
-300
-300
-300
-300
-300
-300
-300
-300
-300
100
86.516
73.6613
61.9773
51.8499
43.4763
36.8698
31.8947
28.3196
25.8736
24.2947
23.3645
22.9296
22.9119
23.3125
24.2118
25.7652
28.1927
31.7571
36.7301
43.343
51.7312
61.8808
73.5932
86.4808
100
-300
-300
-300
-300
-300
-300
-300
-300
-300
-300
100
86.3733
73.3831
61.577
51.3456
42.8886
36.2199
31.2025
27.6029
25.147
23.5694
22.6486
22.2283
22.2283
22.6486
23.5694
25.147
27.6029
31.2025
36.2199
42.8886
51.3456
61.577
73.3831
86.3733
100
-300
-300
-300
-300
-300
-300
-300
-300
-300
-300
-300
-300
-300
-300
100
86.4413
73.515
61.7651
51.5792
43.1551
36.5057
31.494
27.8873
25.4134
23.8091
22.8559
22.4004
22.3653
22.7531
23.6456
25.1997
27.6373
31.2232
36.2307
42.893
51.346
61.5756
73.3813
86.3721
100
-300
-300
-300
-300
-300
-300
-300
-300
-300
-300
100
86.311
73.2614
61.4014
51.1233
42.6278
35.9288
30.8887
27.2728
24.8058
23.2211
22.2962
21.874
21.874
22.2962
23.2211
24.8058
27.2728
30.8887
35.9288
42.6278
51.1233
61.4014
73.2614
86.311
100
-300
-300
-300
-300
-300
-300
-300
-300
-300
-300
-300
-300
-300
-300
100
86.4393
73.5103
61.7565
51.5646
43.1318
36.4697
31.4411
27.8125
25.3119
23.677
22.6906
22.2015
22.1348
22.4949
23.3657
24.9056
27.3375
30.9271
35.9485
42.635
51.123
61.3975
73.257
86.3082
100
-300
-300
-300
-300
-300
-300
-300
-300
-300
-300
100
86.2765
73.1941
61.3042
51.0003
42.4835
35.7677
30.715
27.0901
24.617
23.0284
22.1012
21.678
21.678
22.1012
23.0284
24.617
27.0901
30.715
35.7677
42.4835
51.0003
61.3042
73.1941
86.2765
100
-300
-300
-300
-300
-300
-300
-300
-300
-300
-300
-300
-300
-300
-300
100
86.5095
73.6463
61.9497
51.8032
43.4013
36.7542
31.7238
28.0772
25.5438
23.8641
22.8246
22.2788
22.1562
22.4653
23.2928
24.7989
27.2073
30.7837
35.8017
42.4943
50.9972
61.2948
73.1842
86.2704
100
-300
-300
-300
-300
-300
-300
-300
-300
-300
-300
100
86.2582
73.1583
61.2526
50.9349
42.4068
35.6821
30.6228
26.9931
24.5168
22.9261
21.9977
21.5739
21.5739
21.9977
22.9261
24.5168
26.9931
30.6228
35.6821
42.4068
50.9349
61.2526
73.1583
86.2582
100
-300
-300
-300
-300
-300
-300
-300
-300
-300
-300
-300
-300
-300
-300
100
86.6655
73.9493
62.3824
52.3416
44.0166
37.415
32.3976
28.7326
26.1524
24.4026
23.2766
22.636
22.4185
22.6398
23.3912
24.8356
27.197
30.7403
35.7378
42.4209
50.9242
61.2309
73.1369
86.2453
100
-300
-300
-300
-300
-300
-300
-300
-300
-300
-300
100
86.2488
73.14
61.2262
50.9016
42.3677
35.6385
30.5758
26.9437
24.4657
22.874
21.9449
21.5209
21.5209
21.9449
22.874
24.4657
26.9437
30.5758
35.6385
42.3677
50.9016
61.2262
73.14
86.2488
100
-300
-300
-300
-300
-300
-300
-300
-300
-300
-300
-300
-300
-300
-300
100
86.9343
74.4717
63.1297
53.274
45.0865
38.5701
33.584
29.8978
27.2482
25.3887
24.1241
23.3299
22.9578
23.0351
23.6612
25.0028
27.284
30.768
35.7242
42.3816
50.8727
61.1792
73.0956
86.2224
100
-300
-300
-300
-300
-300
-300
-300
-300
-300
-300
100
86.2442
73.1311
61.2133
50.8852
42.3486
35.6171
30.5527
26.9194
24.4406
22.8484
21.9191
21.4949
21.4949
21.9191
22.8484
24.4406
26.9194
30.5527
35.6171
42.3486
50.8852
61.2133
73.1311
86.2442
100
-300
-300
-300
-300
-300
-300
-300
-300
-300
-300
-300
-300
-300
-300
100
87.3544
75.2889
64.3002
54.7372
46.77
40.394
35.4657
31.7552
29.0047
26.9786
25.4994
24.4647
23.8497
23.7008
24.1302
25.3099
27.4643
30.8527
35.7401
42.3515
50.8166
61.1158
73.0416
86.1915
100
-300
-300
-300
-300
-300
-300
-300
-300
-300
-300
100
86.2421
73.1268
61.2072
50.8775
42.3395
35.607
30.5419
26.908
24.4288
22.8364
21.9069
21.4826
21.4826
21.9069
22.8364
24.4288
26.908
30.5419
35.607
42.3395
50.8775
61.2072
73.1268
86.2421
100
-300
-300
-300
-300
-300
-300
-300
-300
-300
-300
-300
-300
-300
-300
100
87.9726
76.4922
66.0259
56.8989
49.264
43.1059
38.2754
34.5416
31.6511
29.3817
27.581
26.1827
25.1996
24.7092
24.8428
25.78
27.7438
30.9875
35.7688
42.3068
50.7285
61.0133
72.9527
86.14
100
-300
-300
-300
-300
-300
-300
-300
-300
-300
-300
100
86.2411
73.1249
61.2045
50.874
42.3354
35.6024
30.5369
26.9028
24.4235
22.8309
21.9014
21.4771
21.4771
21.9014
22.8309
24.4235
26.9028
30.5369
35.6024
42.3354
50.874
61.2045
73.1249
86.2411
100
-300
-300
-300
-300
-300
-300
-300
-300
-300
-300
-300
-300
-300
-300
100
88.8377
78.1777
68.4467
59.938
52.7815
46.9471
42.2759
38.5312
35.459
32.8489
30.5822
28.6506
27.1288
26.1421
25.8495
26.4392
28.1301
31.1649
35.7903
42.2177
50.5715
60.833
72.7956
86.0483
100
-300
-300
-300
-300
-300
-300
-300
-300
-300
-300
100
86.2407
73.1241
61.2033
50.8725
42.3336
35.6004
30.5348
26.9006
24.4211
22.8285
21.8989
21.4746
21.4746
21.8989
22.8285
24.4211
26.9006
30.5348
35.6004
42.3336
50.8725
61.2033
73.1241
86.2407
100
-300
-300
-300
-300
-300
-300
-300
-300
-300
-300
-300
-300
-300
-300
100
89.9926
80.4295
71.6863
64.0157
57.5192
52.1481
47.729
44.0106
40.7244
37.6584
34.7334
32.039
29.7525
28.0717
27.1908
27.3053
28.6234
31.3704
35.776
42.0419
50.2922
60.5162
72.5173
85.8839
100
-300
-300
-300
-300
-300
-300
-300
-300
-300
-300
100
86.2405
73.1237
61.2027
50.8719
42.3329
35.5996
30.5339
26.8996
24.4201
22.8275
21.8979
21.4736
21.4736
21.8979
22.8275
24.4201
26.8996
30.5339
35.5996
42.3329
50.8719
61.2027
73.1237
86.2405
100
-300
-300
-300
-300
-300
-300
-300
-300
-300
-300
-300
-300
-300
-300
100
91.4634
83.3002
75.8238
69.239
63.6157
58.8849
54.8555
51.2486
47.7514
44.1076
40.2618
36.4913
33.149
30.5342
28.8787
28.3751
29.2089
31.5767
35.6841
41.72
49.8127
59.9718
72.0296
85.5891
100
-300
-300
-300
-300
-300
-300
-300
-300
-300
-300
100
86.2404
73.1236
61.2025
50.8716
42.3326
35.5992
30.5335
26.8992
24.4197
22.8271
21.8975
21.4732
21.4732
21.8975
22.8271
24.4197
26.8992
30.5335
35.5992
42.3326
50.8716
61.2025
73.1236
86.2404
100
-300
-300
-300
-300
-300
-300
-300
-300
-300
-300
-300
-300
-300
-300
100
93.2501
86.7911
80.8646
75.6234
71.1062
67.2289
63.7864
60.4621
56.8498
52.5347
47.3705
42.079
37.3157
33.4986
30.8761
29.6128
29.8507
31.7426
35.4594
41.174
49.0243
59.0609
71.183
85.0553
100
-300
-300
-300
-300
-300
-300
-300
-300
-300
-300
100
86.2404
73.1235
61.2025
50.8715
42.3324
35.5991
30.5333
26.8991
24.4196
22.8269
21.8973
21.473
21.473
21.8973
22.8269
24.4196
26.8991
30.5333
35.5991
42.3324
50.8715
61.2025
73.1235
86.2404
100
-300
-300
-300
-300
-300
-300
-300
-300
-300
-300
-300
-300
-300
-300
100
95.3192
90.8374
86.7183
83.0615
79.8815
77.0946
74.5051
71.7749
68.3612
63.4454
56.2057
48.7214
42.1071
36.8302
33.0794
30.9431
30.4915
31.8155
35.0396
40.3138
47.7886
57.5795
69.719
84.0587
100
-300
-300
-300
-300
-300
-300
-300
-300
-300
-300
100
86.2404
73.1235
61.2024
50.8714
42.3324
35.5991
30.5333
26.899
24.4195
22.8269
21.8973
21.473
21.473
21.8973
22.8269
24.4195
26.899
30.5333
35.5991
42.3324
50.8714
61.2024
73.1235
86.2404
100
-300
-300
-300
-300
-300
-300
-300
-300
-300
-300
-300
-300
-300
-300
100
97.6019
95.3048
93.1912
91.3094
89.6615
88.1921
86.7687
85.1254
82.6893
78.006
66.7054
56.0146
47.1527
40.2644
35.3156
32.2566
31.0606
31.7433
34.3707
39.0573
45.9557
55.253
67.1892
82.078
100
-300
-300
-300
-300
-300
-300
-300
-300
-300
-300
100
86.2404
73.1235
61.2024
50.8714
42.3324
35.599
30.5333
26.899
24.4195
22.8268
21.8973
21.4729
21.4729
21.8973
22.8268
24.4195
26.899
30.5333
35.599
42.3324
50.8714
61.2024
73.1235
86.2404
100
-300
-300
-300
-300
-300
-300
-300
-300
-300
-300
-300
-300
-300
-300
100
100
100
100
100
100
100
100
100
100
100
77.7198
62.869
51.7929
43.4245
37.3697
33.4312
31.4915
31.4915
33.4312
37.3697
43.4245
51.7929
62.869
77.7198
100
100
100
100
100
100
100
100
100
100
100
100
86.2404
73.1235
61.2024
50.8714
42.3324
35.599
30.5333
26.899
24.4195
22.8268
21.8972
21.4729
21.4729
21.8972
22.8268
24.4195
26.899
30.5333
35.599
42.3324
50.8714
61.2024
73.1235
86.2404
100
-300
-300
-300
-300
-300
-300
-300
-300
-300
-300
-300
-300
-300
-300
-300
-300
-300
-300
-300
-300
-300
-300
-300
-300
100
82.078
67.1892
55.253
45.9557
39.0573
34.3707
31.7432
31.0606
32.2565
35.3156
40.2643
47.1527
56.0146
66.7054
78.006
82.6893
85.1253
86.7686
88.1921
89.6615
91.3094
93.1912
95.3048
97.6019
100
100
86.2404
73.1235
61.2024
50.8714
42.3324
35.599
30.5333
26.899
24.4195
22.8268
21.8972
21.4729
21.4729
21.8972
22.8268
24.4195
26.899
30.5333
35.599
42.3324
50.8714
61.2024
73.1235
86.2404
100
-300
-300
-300
-300
-300
-300
-300
-300
-300
-300
-300
-300
-300
-300
-300
-300
-300
-300
-300
-300
-300
-300
-300
-300
100
84.0587
69.719
57.5794
47.7885
40.3137
35.0395
31.8154
30.4914
30.943
33.0793
36.8301
42.107
48.7213
56.2056
63.4453
68.3611
71.7748
74.505
77.0945
79.8814
83.0615
86.7183
90.8373
95.3192
100
100
86.2404
73.1235
61.2024
50.8714
42.3324
35.599
30.5333
26.899
24.4195
22.8268
21.8972
21.4729
21.4729
21.8972
22.8268
24.4195
26.899
30.5332
35.599
42.3324
50.8714
61.2024
73.1235
86.2404
100
-300
-300
-300
-300
-300
-300
-300
-300
-300
-300
-300
-300
-300
-300
-300
-300
-300
-300
-300
-300
-300
-300
-300
-300
100
85.0553
71.1829
59.0607
49.0241
41.1738
35.4592
31.7423
29.8505
29.6125
30.8758
33.4984
37.3154
42.0787
47.3703
52.5345
56.8496
60.4619
63.7862
67.2287
71.106
75.6232
80.8645
86.791
93.2501
100
100
86.2404
73.1235
61.2024
50.8714
42.3324
35.599
30.5333
26.899
24.4195
22.8268
21.8972
21.4729
21.4729
21.8972
22.8268
24.4195
26.899
30.5332
35.599
42.3324
50.8714
61.2024
73.1235
86.2404
100
-300
-300
-300
-300
-300
-300
-300
-300
-300
-300
-300
-300
-300
-300
-300
-300
-300
-300
-300
-300
-300
-300
-300
-300
100
85.5889
72.0294
59.9715
49.8122
41.7195
35.6835
31.5761
29.2083
28.3745
28.8781
30.5336
33.1483
36.4906
40.2611
44.1069
47.7508
51.2479
54.8549
58.8843
63.6152
69.2386
75.8235
83.3
91.4633
100
100
86.2404
73.1235
61.2024
50.8714
42.3324
35.599
30.5333
26.899
24.4195
22.8268
21.8972
21.4729
21.4729
21.8972
22.8268
24.4195
26.899
30.5332
35.599
42.3324
50.8714
61.2024
73.1235
86.2404
100
-300
-300
-300
-300
-300
-300
-300
-300
-300
-300
-300
-300
-300
-300
-300
-300
-300
-300
-300
-300
-300
-300
-300
-300
100
85.8835
72.5167
60.5154
50.2911
42.0407
35.7746
31.3688
28.6218
27.3037
27.1891
28.07
29.7508
32.0373
34.7317
37.6567
40.7228
44.009
47.7275
52.1467
57.518
64.0146
71.6855
80.4289
89.9923
100
100
86.2404
73.1235
61.2024
50.8714
42.3324
35.599
30.5333
26.899
24.4195
22.8268
21.8972
21.4729
21.4729
21.8972
22.8268
24.4195
26.899
30.5332
35.599
42.3323
50.8714
61.2024
73.1235
86.2404
100
-300
-300
-300
-300
-300
-300
-300
-300
-300
-300
-300
-300
-300
-300
-300
-300
-300
-300
-300
-300
-300
-300
-300
-300
100
86.0476
72.7942
60.8309
50.5689
42.2146
35.7869
31.1613
28.1262
26.4352
25.8454
26.138
27.1246
28.6465
30.5781
32.8448
35.455
38.5273
42.2722
46.9437
52.7785
59.9354
68.4447
78.1763
88.837
100
100
86.2404
73.1235
61.2024
50.8714
42.3324
35.599
30.5333
26.899
24.4195
22.8268
21.8972
21.4729
21.4729
21.8972
22.8268
24.4195
26.8989
30.5332
35.599
42.3323
50.8714
61.2023
73.1235
86.2403
100
-300
-300
-300
-300
-300
-300
-300
-300
-300
-300
-300
-300
-300
-300
-300
-300
-300
-300
-300
-300
-300
-300
-300
-300
100
86.1383
72.9493
61.0084
50.7223
42.2996
35.7607
30.9789
27.7347
25.7707
24.8332
24.6995
25.1899
26.173
27.5714
29.3722
31.6418
34.5326
38.2668
43.0979
49.2568
56.8928
66.0211
76.4889
87.9709
100
100
86.2404
73.1235
61.2024
50.8714
42.3324
35.599
30.5332
26.899
24.4195
22.8268
21.8972
21.4729
21.4729
21.8972
22.8268
24.4194
26.8989
30.5331
35.5989
42.3322
50.8713
61.2023
73.1234
86.2403
100
-300
-300
-300
-300
-300
-300
-300
-300
-300
-300
-300
-300
-300
-300
-300
-300
-300
-300
-300
-300
-300
-300
-300
-300
100
86.1876
73.034
61.1048
50.8027
42.3352
35.7219
30.8331
27.4437
25.2887
24.1085
23.6789
23.8277
24.4428
25.4775
26.957
28.9835
31.7347
35.4462
40.376
46.7538
54.7234
64.2892
75.2813
87.3505
100
100
86.2404
73.1235
61.2024
50.8714
42.3324
35.599
30.5332
26.899
24.4195
22.8268
21.8972
21.4729
21.4729
21.8972
22.8267
24.4193
26.8988
30.533
35.5987
42.332
50.871
61.202
73.1232
86.2402
100
-300
-300
-300
-300
-300
-300
-300
-300
-300
-300
-300
-300
-300
-300
-300
-300
-300
-300
-300
-300
-300
-300
-300
-300
100
86.2138
73.0788
61.155
50.8421
42.3459
35.6844
30.7252
27.2391
24.9564
23.614
22.9874
22.9099
23.282
24.0764
25.3415
27.202
29.8531
33.5415
38.5306
45.0511
53.2438
63.1059
74.4552
86.9258
100
100
86.2404
73.1235
61.2024
50.8714
42.3324
35.599
30.5332
26.899
24.4195
22.8268
21.8972
21.4729
21.4728
21.8971
22.8266
24.4191
26.8985
30.5326
35.5982
42.3315
50.8705
61.2016
73.1229
86.24
100
-300
-300
-300
-300
-300
-300
-300
-300
-300
-300
-300
-300
-300
-300
-300
-300
-300
-300
-300
-300
-300
-300
-300
-300
100
86.2271
73.1015
61.1799
50.8598
42.3456
35.6539
30.6501
27.1023
24.738
23.2917
22.5392
22.3175
22.5349
23.1761
24.3033
26.0551
28.6385
32.3081
37.3319
43.9422
52.2781
62.3322
73.9145
86.6477
100
100
86.2404
73.1235
61.2024
50.8714
42.3324
35.599
30.5332
26.899
24.4195
22.8268
21.8972
21.4728
21.4727
21.8969
22.8263
24.4187
26.8979
30.5318
35.5972
42.3303
50.8693
61.2005
73.122
86.2396
100
-300
-300
-300
-300
-300
-300
-300
-300
-300
-300
-300
-300
-300
-300
-300
-300
-300
-300
-300
-300
-300
-300
-300
-300
100
86.2335
73.1121
61.191
50.8662
42.3411
35.6313
30.6005
27.015
24.6006
23.0906
22.261
21.9509
22.0737
22.6206
23.6624
25.3463
27.8861
31.542
36.5856
43.2502
51.6744
61.8479
73.5757
86.4733
100
100
86.2404
73.1235
61.2024
50.8714
42.3324
35.599
30.5332
26.899
24.4195
22.8268
21.8971
21.4727
21.4725
21.8965
22.8257
24.4178
26.8965
30.53
35.5951
42.3279
50.8668
61.1982
73.1202
86.2386
100
-300
-300
-300
-300
-300
-300
-300
-300
-300
-300
-300
-300
-300
-300
-300
-300
-300
-300
-300
-300
-300
-300
-300
-300
100
86.2358
73.1158
61.1943
50.8665
42.3351
35.6148
30.5685
26.9613
24.5176
22.9703
22.0953
21.7333
21.8002
22.2915
23.2826
24.9256
27.4387
31.0857
36.14
42.8363
51.3128
61.5575
73.3724
86.3686
100
100
86.2404
73.1235
61.2024
50.8714
42.3324
35.599
30.5332
26.8989
24.4194
22.8267
21.897
21.4724
21.472
21.8957
22.8244
24.4159
26.8939
30.5265
35.5907
42.3228
50.8615
61.1933
73.1165
86.2365
100
-300
-300
-300
-300
-300
-300
-300
-300
-300
-300
-300
-300
-300
-300
-300
-300
-300
-300
-300
-300
-300
-300
-300
-300
100
86.2353
73.1146
61.1918
50.862
42.3272
35.6015
30.5471
26.9282
24.4686
22.9006
22.0003
21.6091
21.6445
22.1042
23.0664
24.6858
27.1834
30.8247
35.8848
42.5989
51.105
61.3905
73.2554
86.3084
100
100
86.2404
73.1235
61.2024
50.8714
42.3324
35.599
30.5332
26.8989
24.4194
22.8265
21.8967
21.4719
21.4711
21.8942
22.822
24.4122
26.8886
30.5194
35.5819
42.3127
50.8509
61.1835
73.1088
86.2323
100
-300
-300
-300
-300
-300
-300
-300
-300
-300
-300
-300
-300
-300
-300
-300
-300
-300
-300
-300
-300
-300
-300
-300
-300
100
86.2318
73.1081
61.183
50.8514
42.3152
35.5876
30.5301
26.9061
24.439
22.8606
21.9472
21.5405
21.5591
22.0017
22.9481
24.5545
27.0434
30.6814
35.7445
42.4681
50.9906
61.2984
73.1908
86.2751
100
100
86.2404
73.1235
61.2024
50.8714
42.3324
35.599
30.5332
26.8988
24.4192
22.8263
21.8962
21.4709
21.4694
21.8913
22.8174
24.4052
26.8786
30.506
35.565
42.2931
50.8303
61.1642
73.0938
86.224
100
-300
-300
-300
-300
-300
-300
-300
-300
-300
-300
-300
-300
-300
-300
-300
-300
-300
-300
-300
-300
-300
-300
-300
-300
100
86.2238
73.0935
61.1641
50.8307
42.2944
35.5679
30.5113
26.8872
24.4183
22.8363
21.9172
21.5033
21.5135
21.9475
22.8857
24.4853
26.9696
30.6058
35.6704
42.399
50.93
61.2496
73.1566
86.2575
100
100
86.2404
73.1235
61.2024
50.8714
42.3323
35.599
30.5331
26.8987
24.419
22.8258
21.8953
21.4693
21.4664
21.8862
22.8092
24.3926
26.8604
30.4813
35.5337
42.2566
50.7914
61.1276
73.065
86.2081
100
-300
-300
-300
-300
-300
-300
-300
-300
-300
-300
-300
-300
-300
-300
-300
-300
-300
-300
-300
-300
-300
-300
-300
-300
100
86.208
73.0649
61.1276
50.7916
42.2572
35.5351
30.4838
26.8645
24.3988
22.8181
21.8984
21.4824
21.4893
21.9194
22.8538
24.4502
26.9321
30.5675
35.6327
42.3639
50.8992
61.2248
73.1392
86.2485
100
100
86.2404
73.1235
61.2024
50.8714
42.3323
35.5989
30.5331
26.8985
24.4186
22.825
21.8937
21.4664
21.4613
21.8775
22.7949
24.3707
26.8284
30.4375
35.4778
42.1905
50.7204
61.0601
73.0114
86.1783
100
-300
-300
-300
-300
-300
-300
-300
-300
-300
-300
-300
-300
-300
-300
-300
-300
-300
-300
-300
-300
-300
-300
-300
-300
100
86.1783
73.0114
61.0601
50.7205
42.1908
35.4784
30.4387
26.8303
24.3735
22.799
21.883
21.4685
21.4755
21.9047
22.8378
24.4328
26.9138
30.5487
35.6144
42.3468
50.8841
61.2126
73.1307
86.2441
100
100
86.2404
73.1235
61.2024
50.8714
42.3323
35.5989
30.5329
26.8983
24.418
22.8238
21.8913
21.4617
21.4529
21.8631
22.7714
24.3341
26.7746
30.363
35.3813
42.0751
50.5948
60.9391
72.9143
86.1238
100
-300
-300
-300
-300
-300
-300
-300
-300
-300
-300
-300
-300
-300
-300
-300
-300
-300
-300
-300
-300
-300
-300
-300
-300
100
86.1238
72.9143
60.9391
50.5948
42.0752
35.3816
30.3635
26.7754
24.3353
22.7732
21.8655
21.4561
21.4657
21.8961
22.8294
24.4242
26.905
30.5398
35.6057
42.3387
50.877
61.2069
73.1267
86.242
100
100
86.2404
73.1235
61.2024
50.8714
42.3323
35.5988
30.5327
26.8978
24.4171
22.8218
21.8875
21.4546
21.4399
21.8405
22.7341
24.2756
26.6876
30.241
35.2212
41.8804
50.3792
60.728
72.742
86.026
100
-300
-300
-300
-300
-300
-300
-300
-300
-300
-300
-300
-300
-300
-300
-300
-300
-300
-300
-300
-300
-300
-300
-300
-300
100
86.026
72.742
60.728
50.3792
41.8805
35.2214
30.2412
26.688
24.2761
22.7349
21.8416
21.4412
21.4562
21.8895
22.8242
24.4197
26.9007
30.5357
35.6017
42.335
50.8738
61.2043
73.1248
86.2411
100
100
86.2404
73.1235
61.2024
50.8714
42.3322
35.5987
30.5324
26.8972
24.4157
22.819
21.8819
21.4439
21.4205
21.8067
22.6778
24.1862
26.553
30.0494
34.9654
41.5633
50.0204
60.3683
72.4421
85.8526
100
-300
-300
-300
-300
-300
-300
-300
-300
-300
-300
-300
-300
-300
-300
-300
-300
-300
-300
-300
-300
-300
-300
-300
-300
100
85.8526
72.4421
60.3683
50.0204
41.5634
34.9655
30.0495
26.5531
24.1864
22.6781
21.8071
21.421
21.4446
21.8827
22.82
24.4168
26.8984
30.5337
35.5999
42.3333
50.8723
61.2032
73.1241
86.2407
100
100
86.2404
73.1235
61.2024
50.8713
42.3321
35.5985
30.5321
26.8963
24.4138
22.8151
21.8741
21.4289
21.393
21.7583
22.5964
24.0556
26.3536
29.7611
34.5729
41.0652
49.441
59.7694
71.9262
85.5458
100
-300
-300
-300
-300
-300
-300
-300
-300
-300
-300
-300
-300
-300
-300
-300
-300
-300
-300
-300
-300
-300
-300
-300
-300
100
85.5458
71.9262
59.7694
49.441
41.0652
34.5729
29.7611
26.3537
24.0557
22.5966
21.7585
21.3932
21.4292
21.8744
22.8155
24.4142
26.8968
30.5325
35.599
42.3326
50.8717
61.2027
73.1237
86.2405
100
100
86.2404
73.1235
61.2024
50.8713
42.3321
35.5983
30.5315
26.8952
24.4113
22.8099
21.8637
21.4089
21.356
21.6926
22.4848
23.8742
26.0725
29.3469
33.996
40.3123
48.5347
58.7929
71.0446
84.9964
100
-300
-300
-300
-300
-300
-300
-300
-300
-300
-300
-300
-300
-300
-300
-300
-300
-300
-300
-300
-300
-300
-300
-300
-300
100
84.9964
71.0446
58.7929
48.5347
40.3123
33.996
29.3469
26.0725
23.8743
22.4848
21.6927
21.356
21.409
21.8638
22.8101
24.4115
26.8953
30.5317
35.5985
42.3322
50.8715
61.2025
73.1236
86.2404
100
100
86.2404
73.1235
61.2023
50.8713
42.3319
35.598
30.5309
26.8937
24.4082
22.8034
21.8505
21.3835
21.3086
21.6079
22.3393
23.635
25.6959
28.7812
33.1881
39.2232
47.1669
57.2356
69.5369
83.978
100
-300
-300
-300
-300
-300
-300
-300
-300
-300
-300
-300
-300
-300
-300
-300
-300
-300
-300
-300
-300
-300
-300
-300
-300
100
83.978
69.5369
57.2356
47.1669
39.2232
33.1881
28.7812
25.6959
23.635
22.3394
21.6079
21.3086
21.3835
21.8506
22.8034
24.4083
26.8938
30.531
35.5981
42.332
50.8713
61.2024
73.1235
86.2404
100
100
86.2404
73.1235
61.2023
50.8712
42.3318
35.5977
30.5302
26.892
24.4045
22.7956
21.8348
21.3528
21.2512
21.5044
22.1601
23.3366
25.2192
28.0509
32.1176
37.7277
45.1928
54.8226
66.9498
81.9612
100
-300
-300
-300
-300
-300
-300
-300
-300
-300
-300
-300
-300
-300
-300
-300
-300
-300
-300
-300
-300
-300
-300
-300
-300
100
81.9612
66.9498
54.8226
45.1928
37.7277
32.1176
28.0509
25.2192
23.3366
22.1601
21.5044
21.2512
21.3529
21.8348
22.7956
24.4045
26.892
30.5302
35.5977
42.3318
50.8712
61.2023
73.1235
86.2404
100
100
86.2404
73.1235
61.2023
50.8712
42.3317
35.5973
30.5293
26.8901
24.4003
22.7868
21.817
21.318
21.1855
21.3852
21.9517
22.9861
24.6515
27.1657
30.7881
35.8047
42.5172
51.2641
62.5463
77.5254
100
100
100
100
100
100
100
100
100
100
100
100
100
100
100
100
100
100
100
100
100
100
100
100
100
100
77.5254
62.5463
51.2641
42.5172
35.8047
30.7881
27.1657
24.6515
22.9861
21.9517
21.3852
21.1855
21.318
21.817
22.7868
24.4003
26.8901
30.5293
35.5973
42.3317
50.8712
61.2023
73.1235
86.2404
100
100
86.2404
73.1235
61.2023
50.8711
42.3315
35.597
30.5284
26.8881
24.3959
22.7775
21.7979
21.2805
21.1144
21.2555
21.7237
22.5994
24.0188
26.1657
29.2584
33.5319
39.2158
46.5132
55.5647
66.2963
77.5254
81.9612
83.978
84.9964
85.5458
85.8526
86.026
86.1238
86.1782
86.208
86.2237
86.2315
86.2347
86.2347
86.2315
86.2237
86.208
86.1782
86.1238
86.026
85.8526
85.5458
84.9964
83.978
81.9612
77.5254
66.2963
55.5647
46.5132
39.2158
33.5319
29.2584
26.1657
24.0188
22.5994
21.7237
21.2555
21.1144
21.2805
21.7979
22.7775
24.3959
26.8881
30.5284
35.597
42.3315
50.8711
61.2023
73.1235
86.2404
100
100
86.2404
73.1235
61.2023
50.8711
42.3314
35.5966
30.5276
26.8861
24.3915
22.7681
21.7786
21.2424
21.042
21.1228
21.4892
22.1997
23.3607
25.1178
27.6411
31.104
35.652
41.356
48.1315
55.5647
62.5463
66.9498
69.5369
71.0446
71.9262
72.4421
72.742
72.9142
73.0113
73.0647
73.0931
73.1074
73.1132
73.1132
73.1074
73.0931
73.0647
73.0113
72.9142
72.742
72.4421
71.9262
71.0446
69.5369
66.9498
62.5463
55.5647
48.1315
41.356
35.652
31.104
27.6411
25.1178
23.3607
22.1997
21.4892
21.1228
21.042
21.2424
21.7786
22.7681
24.3915
26.8861
30.5276
35.5966
42.3314
50.8711
61.2023
73.1235
86.2404
100
100
86.2404
73.1235
61.2024
50.8711
42.3314
35.5964
30.5269
26.8843
24.3874
22.7592
21.7602
21.2059
20.9725
20.9951
21.2628
21.8126
22.7217
24.0981
26.0658
28.7426
32.2088
36.4625
41.356
46.5132
51.2641
54.8226
57.2356
58.7929
59.7694
60.3683
60.7279
60.9391
61.06
61.1273
61.1634
61.1816
61.1891
61.1891
61.1816
61.1634
61.1273
61.06
60.9391
60.7279
60.3683
59.7694
58.7929
57.2356
54.8226
51.2641
46.5132
41.356
36.4625
32.2088
28.7426
26.0658
24.0981
22.7217
21.8126
21.2628
20.9951
20.9725
21.2059
21.7602
22.7592
24.3874
26.8843
30.5269
35.5964
42.3314
50.8711
61.2024
73.1235
86.2404
100
100
86.2405
73.1237
61.2025
50.8713
42.3316
35.5964
30.5265
26.883
24.3839
22.7514
21.7438
21.1731
20.9096
20.8792
21.0572
21.4608
22.1411
23.173
24.6413
26.6217
29.1539
32.2088
35.652
39.2158
42.5172
45.1928
47.1669
48.5347
49.441
50.0204
50.3792
50.5947
50.7202
50.791
50.8294
50.8489
50.8569
50.8569
50.8489
50.8294
50.791
50.7202
50.5947
50.3792
50.0204
49.441
48.5347
47.1669
45.1928
42.5172
39.2158
35.652
32.2088
29.1539
26.6217
24.6413
23.173
22.1411
21.4608
21.0572
20.8792
20.9096
21.1731
21.7438
22.7514
24.3839
26.883
30.5265
35.5964
42.3316
50.8713
61.2025
73.1237
86.2405
100
100
86.2406
73.124
61.203
50.8719
42.3322
35.597
30.5267
26.8824
24.3816
22.7453
21.7304
21.1457
20.8564
20.7806
20.8816
21.1603
21.6458
22.3861
23.4362
24.8422
26.6217
28.7426
31.104
33.5319
35.8047
37.7277
39.2232
40.3123
41.0652
41.5633
41.8804
42.075
42.1903
42.2562
42.2923
42.3107
42.3184
42.3184
42.3107
42.2923
42.2562
42.1903
42.075
41.8804
41.5633
41.0652
40.3123
39.2232
37.7277
35.8047
33.5319
31.104
28.7426
26.6217
24.8422
23.4362
22.3861
21.6458
21.1603
20.8816
20.7806
20.8564
21.1457
21.7304
22.7453
24.3816
26.8824
30.5267
35.597
42.3322
50.8719
61.203
73.124
86.2406
100
100
86.2411
73.1248
61.2042
50.8734
42.3339
35.5988
30.5284
26.8835
24.3812
22.742
21.7211
21.125
20.8148
20.7022
20.7411
20.9191
21.2484
21.7566
22.477
23.4362
24.6413
26.0658
27.6411
29.2584
30.7881
32.1176
33.1881
33.996
34.5729
34.9654
35.2212
35.3813
35.4776
35.5334
35.5642
35.5801
35.5867
35.5867
35.5801
35.5642
35.5334
35.4776
35.3813
35.2212
34.9654
34.5729
33.996
33.1881
32.1176
30.7881
29.2584
27.6411
26.0658
24.6413
23.4362
22.477
21.7566
21.2484
20.9191
20.7411
20.7022
20.8148
21.125
21.7211
22.742
24.3812
26.8835
30.5284
35.5988
42.3339
50.8734
61.2042
73.1248
86.2411
100
100
86.2421
73.1268
61.207
50.8769
42.3379
35.6032
30.5329
26.8877
24.3845
22.7431
21.7177
21.1128
20.7866
20.6457
20.6371
20.7384
20.9492
21.2825
21.7566
22.3861
23.173
24.0981
25.1178
26.1657
27.1657
28.0509
28.7812
29.3469
29.7611
30.0494
30.241
30.363
30.4374
30.481
30.5053
30.518