# vtk DataFile Version 2.0
LBE two cylinders
ASCII
DATASET STRUCTURED_POINTS
DIMENSIONS 76 76 1
ASPECT_RATIO 1 1 1
ORIGIN 0 0 0
POINT_DATA 5776
SCALARS temp double 1
LOOKUP_TABLE default
100
100
100
100
100
100
100
100
100
100
100
100
100
100
100
100
100
100
100
100
100
100
100
100
100
100
-300
-300
-300
-300
-300
-300
-300
-300
-300
-300
-300
-300
-300
-300
100
100
100
100
100
100
100
100
100
100
100
100
100
100
100
100
100
100
100
100
100
100
100
100
100
100
-300
-300
-300
-300
-300
-300
-300
-300
-300
-300
100
97.0458
94.2629
91.793
89.727
88.0972
86.8841
86.0313
85.465
85.1098
84.9007
84.788
84.7395
84.7395
84.788
84.9007
85.1098
85.465
86.0313
86.8841
88.0972
89.727
91.793
94.2629
97.0458
100
-300
-300
-300
-300
-300
-300
-300
-300
-300
-300
-300
-300
-300
-300
100
97.0458
94.2629
91.793
89.727
88.0972
86.8841
86.0313
85.465
85.1098
84.9007
84.788
84.7395
84.7395
84.788
84.9007
85.1098
85.465
86.0313
86.8841
88.0972
89.727
91.793
94.2629
97.0458
100
-300
-300
-300
-300
-300
-300
-300
-300
-300
-300
100
94.2629
88.8586
84.0622
80.0501
76.8853
74.5297
72.8738
71.7742
71.0846
70.6785
70.4598
70.3657
70.3657
70.4598
70.6785
71.0846
71.7742
72.8738
74.5297
76.8853
80.0501
84.0622
88.8586
94.2629
100
-300
-300
-300
-300
-300
-300
-300
-300
-300
-300
-300
-300
-300
-300
100
94.2629
88.8586
84.0622
80.0501
76.8853
74.5297
72.8738
71.7742
71.0846
70.6785
70.4598
70.3657
70.3657
70.4598
70.6785
71.0846
71.7742
72.8738
74.5297
76.8853
80.0501
84.0622
88.8586
94.2629
100
-300
-300
-300
-300
-300
-300
-300
-300
-300
-300
100
91.793
84.0622
77.2012
71.4622
66.9354
63.5661
61.1979
59.6253
58.6391
58.0584
57.7457
57.6112
57.6112
57.7457
58.0584
58.6391
59.6253
61.1979
63.5661
66.9354
71.4622
77.2012
84.0622
91.793
100
-300
-300
-300
-300
-300
-300
-300
-300
-300
-300
-300
-300
-300
-300
100
91.793
84.0622
77.2012
71.4622
66.9354
63.5661
61.1979
59.6253
58.6391
58.0584
57.7457
57.6112
57.6112
57.7457
58.0584
58.6391
59.6253
61.1979
63.5661
66.9354
71.4622
77.2012
84.0622
91.793
100
-300
-300
-300
-300
-300
-300
-300
-300
-300
-300
100
89.727
80.0501
71.4622
64.279
58.6133
54.3965
51.4329
49.465
48.2312
47.5046
47.1134
46.9451
46.9451
47.1134
47.5046
48.2312
49.465
51.4329
54.3965
58.6133
64.279
71.4622
80.0501
89.727
100
-300
-300
-300
-300
-300
-300
-300
-300
-300
-300
-300
-300
-300
-300
100
89.727
80.0501
71.4622
64.279
58.6134
54.3966
51.433
49.4651
48.2312
47.5047
47.1134
46.9452
46.9452
47.1134
47.5046
48.2312
49.465
51.4329
54.3965
58.6133
64.279
71.4622
80.0501
89.727
100
-300
-300
-300
-300
-300
-300
-300
-300
-300
-300
100
88.0972
76.8853
66.9353
58.6132
52.0496
47.1648
43.732
41.4527
40.0238
39.1824
38.7294
38.5346
38.5346
38.7294
39.1824
40.0238
41.4527
43.732
47.1648
52.0496
58.6132
66.9353
76.8853
88.0972
100
-300
-300
-300
-300
-300
-300
-300
-300
-300
-300
-300
-300
-300
-300
100
88.0972
76.8853
66.9354
58.6133
52.0497
47.1649
43.7321
41.4529
40.0239
39.1826
38.7295
38.5347
38.5347
38.7295
39.1825
40.0238
41.4527
43.732
47.1648
52.0496
58.6132
66.9353
76.8853
88.0972
100
-300
-300
-300
-300
-300
-300
-300
-300
-300
-300
100
86.884
74.5294
63.5657
54.3962
47.1645
41.7829
38.0012
35.4906
33.9167
32.9902
32.4913
32.2768
32.2768
32.4913
32.9902
33.9167
35.4906
38.0012
41.7829
47.1645
54.3962
63.5657
74.5294
86.884
100
-300
-300
-300
-300
-300
-300
-300
-300
-300
-300
-300
-300
-300
-300
100
86.8841
74.5297
63.5661
54.3966
47.1649
41.7834
38.0017
35.491
33.9171
32.9905
32.4916
32.2771
32.277
32.4915
32.9903
33.9168
35.4906
38.0012
41.7829
47.1645
54.3962
63.5657
74.5294
86.884
100
-300
-300
-300
-300
-300
-300
-300
-300
-300
-300
100
86.031
72.8732
61.197
51.4318
43.7308
38.0003
33.9738
31.3008
29.6253
28.639
28.108
27.8797
27.8797
28.108
28.639
29.6253
31.3008
33.9738
38.0003
43.7308
51.4318
61.197
72.8732
86.031
100
-300
-300
-300
-300
-300
-300
-300
-300
-300
-300
-300
-300
-300
-300
100
86.0313
72.8738
61.1979
51.4329
43.7321
38.0016
33.9751
31.302
29.6264
28.64
28.1089
27.8804
27.8802
28.1084
28.6393
29.6254
31.3009
33.9738
38.0003
43.7308
51.4318
61.197
72.8732
86.031
100
-300
-300
-300
-300
-300
-300
-300
-300
-300
-300
100
85.4641
71.7725
59.6228
49.462
41.4494
35.4872
31.2982
28.5176
26.7747
25.7489
25.1967
24.9592
24.9592
25.1967
25.7489
26.7747
28.5176
31.2982
35.4872
41.4494
49.462
59.6228
71.7725
85.4641
100
-300
-300
-300
-300
-300
-300
-300
-300
-300
-300
-300
-300
-300
-300
100
85.465
71.7742
59.6252
49.4649
41.4526
35.4907
31.3017
28.5209
26.7778
25.7516
25.1989
24.961
24.9606
25.1977
25.7496
26.7752
28.5178
31.2984
35.4873
41.4494
49.462
59.6228
71.7725
85.4641
100
-300
-300
-300
-300
-300
-300
-300
-300
-300
-300
100
85.1076
71.0802
58.6329
48.2234
40.0149
33.9073
29.6163
26.7681
24.9831
23.9324
23.3669
23.1238
23.1238
23.3669
23.9324
24.9831
26.7681
29.6163
33.9073
40.0149
48.2234
58.6329
71.0802
85.1076
100
-300
-300
-300
-300
-300
-300
-300
-300
-300
-300
-300
-300
-300
-300
100
85.1098
71.0845
58.6389
48.2308
40.0233
33.9162
29.6252
26.7766
24.9909
23.9393
23.3726
23.1284
23.1273
23.3694
23.9342
24.9842
26.7688
29.6167
33.9075
40.0149
48.2234
58.6328
71.0802
85.1075
100
-300
-300
-300
-300
-300
-300
-300
-300
-300
-300
100
84.8951
70.6678
58.0431
47.4855
39.1605
32.9664
28.6147
25.7264
23.9163
22.851
22.2775
22.031
22.031
22.2775
22.851
23.9163
25.7264
28.6147
32.9664
39.1605
47.4855
58.0431
70.6678
84.8951
100
-300
-300
-300
-300
-300
-300
-300
-300
-300
-300
-300
-300
-300
-300
100
84.9005
70.6782
58.0579
47.5037
39.181
32.9881
28.6365
25.7473
23.9354
22.8678
22.2916
22.0423
22.0396
22.2838
22.8552
23.9191
25.7281
28.6157
32.9668
39.1606
47.4855
58.043
70.6677
84.8951
100
-300
-300
-300
-300
-300
-300
-300
-300
-300
-300
100
84.7751
70.4347
57.7099
47.0687
38.6778
32.4349
28.0491
25.1381
23.3139
22.2403
21.6624
21.414
21.414
21.6624
22.2403
23.3139
25.1381
28.0491
32.4349
38.6778
47.0687
57.7099
70.4347
84.7751
100
-300
-300
-300
-300
-300
-300
-300
-300
-300
-300
-300
-300
-300
-300
100
84.7877
70.4591
57.7444
47.1112
38.7258
32.4857
28.1001
25.1872
23.3589
22.2799
21.6957
21.4407
21.4343
21.6772
22.2504
23.3205
25.1421
28.0512
32.4359
38.6781
47.0685
57.7095
70.4344
84.7749
100
-300
-300
-300
-300
-300
-300
-300
-300
-300
-300
100
84.7107
70.3097
57.5311
46.845
38.4189
32.1499
27.7457
24.8227
22.9909
21.9129
21.3327
21.0832
21.0832
21.3327
21.9129
22.9909
24.8227
27.7457
32.1499
38.4189
46.845
57.5311
70.3097
84.7107
100
-300
-300
-300
-300
-300
-300
-300
-300
-300
-300
-300
-300
-300
-300
100
84.739
70.3643
57.6085
46.9403
38.5265
32.2638
27.8605
24.933
23.0924
22.0022
21.4077
21.1434
21.1292
21.366
21.9358
23.0057
24.8316
27.7505
32.152
38.4194
46.8445
57.5302
70.3088
84.7101
100
-300
-300
-300
-300
-300
-300
-300
-300
-300
-300
100
84.6778
70.2459
57.4399
46.731
38.2869
32.0045
27.5911
24.6619
22.8263
21.746
21.1646
20.9147
20.9147
21.1646
21.746
22.8263
24.6619
27.5911
32.0045
38.2869
46.731
57.4399
70.2459
84.6778
100
-300
-300
-300
-300
-300
-300
-300
-300
-300
-300
-300
-300
-300
-300
100
84.7384
70.3629
57.6057
46.9352
38.5176
32.2493
27.8378
24.8994
23.045
21.9387
21.3268
21.0447
21.0139
21.2366
21.7954
22.8581
24.681
27.6013
32.0088
38.2875
46.7295
57.4375
70.2437
84.6765
100
-300
-300
-300
-300
-300
-300
-300
-300
-300
-300
100
84.6618
70.2149
57.3956
46.6756
38.2228
31.934
27.516
24.5839
22.7464
21.6651
21.0831
20.8329
20.8329
21.0831
21.6651
22.7464
24.5839
27.516
31.934
38.2228
46.6756
57.3956
70.2149
84.6618
100
-300
-300
-300
-300
-300
-300
-300
-300
-300
-300
-300
-300
-300
-300
100
84.7858
70.4544
57.7351
47.094
38.696
32.4367
28.0235
25.0731
23.1977
22.0632
21.4183
21.1019
21.0382
21.2317
21.7669
22.812
24.6229
27.5365
31.9421
38.2231
46.6715
57.3898
70.2096
84.6587
100
-300
-300
-300
-300
-300
-300
-300
-300
-300
-300
100
84.6544
70.2005
57.3751
46.65
38.1932
31.9013
27.4813
24.5478
22.7095
21.6276
21.0454
20.7951
20.7951
21.0454
21.6276
22.7095
24.5478
27.4813
31.9013
38.1932
46.65
57.3751
70.2005
84.6544
100
-300
-300
-300
-300
-300
-300
-300
-300
-300
-300
-300
-300
-300
-300
100
84.8967
70.6687
58.039
47.469
39.1205
32.888
28.4789
25.5113
23.5998
22.4141
21.7083
21.3271
21.2009
21.3389
21.8283
22.8382
24.6239
27.5205
31.9158
38.1918
46.6396
57.3614
70.1882
84.6472
100
-300
-300
-300
-300
-300
-300
-300
-300
-300
-300
100
84.6512
70.1942
57.3661
46.6387
38.1801
31.8869
27.466
24.5319
22.6932
21.6111
21.0287
20.7784
20.7784
21.0287
21.6111
22.6932
24.5319
27.466
31.8869
38.1801
46.6387
57.3661
70.1942
84.6512
100
-300
-300
-300
-300
-300
-300
-300
-300
-300
-300
-300
-300
-300
-300
100
85.103
71.0679
58.6058
48.1695
39.9157
33.7366
29.3399
26.3458
24.3726
23.0969
22.282
21.7841
21.5448
21.5822
21.9886
22.9344
24.6731
27.5371
31.9105
38.1729
46.6139
57.3349
70.1665
84.635
100
-300
-300
-300
-300
-300
-300
-300
-300
-300
-300
100
84.6498
70.1915
57.3622
46.6339
38.1746
31.8809
27.4595
24.5252
22.6863
21.6042
21.0217
20.7714
20.7714
21.0217
21.6042
22.6863
24.5252
27.4595
31.8809
38.1746
46.6339
57.3622
70.1915
84.6498
100
-300
-300
-300
-300
-300
-300
-300
-300
-300
-300
-300
-300
-300
-300
100
85.4542
71.7475
59.5716
49.365
41.2757
35.1922
30.8223
27.7885
25.715
24.2881
23.2871
22.5884
22.1539
22.0178
22.2813
23.1167
24.7745
27.5813
31.9153
38.1517
46.5778
57.2943
70.1317
84.615
100
-300
-300
-300
-300
-300
-300
-300
-300
-300
-300
100
84.6493
70.1905
57.3607
46.632
38.1723
31.8784
27.4569
24.5225
22.6835
21.6014
21.0189
20.7685
20.7685
21.0189
21.6014
22.6835
24.5225
27.4569
31.8784
38.1723
46.632
57.3607
70.1905
84.6493
100
-300
-300
-300
-300
-300
-300
-300
-300
-300
-300
-300
-300
-300
-300
100
86.0153
72.8342
61.1175
51.2815
43.461
37.5388
33.2215
30.1341
27.9065
26.2388
24.9347
23.9058
23.15
22.7291
22.7591
23.4148
24.9406
27.6532
31.921
38.1123
46.5111
57.2184
70.0658
84.5765
100
-300
-300
-300
-300
-300
-300
-300
-300
-300
-300
100
84.649
70.19
57.3601
46.6312
38.1715
31.8775
27.4559
24.5214
22.6825
21.6003
21.0178
20.7674
20.7674
21.0178
21.6003
22.6825
24.5214
27.4559
31.8775
38.1715
46.6312
57.3601
70.19
84.649
100
-300
-300
-300
-300
-300
-300
-300
-300
-300
-300
-300
-300
-300
-300
100
86.8621
74.4751
63.4546
54.1843
46.7801
41.1166
36.8978
33.7484
31.3013
29.2698
27.4938
25.9447
24.6833
23.8174
23.4854
23.864
25.1864
27.7524
31.915
38.0316
46.3831
57.0735
69.9387
84.5017
100
-300
-300
-300
-300
-300
-300
-300
-300
-300
-300
100
84.649
70.1899
57.3599
46.631
38.1712
31.8771
27.4556
24.521
22.6821
21.5999
21.0174
20.767
20.767
21.0174
21.5999
22.6821
24.521
27.4556
31.8771
38.1712
46.631
57.3599
70.1899
84.649
100
-300
-300
-300
-300
-300
-300
-300
-300
-300
-300
-300
-300
-300
-300
100
88.0698
76.8168
66.794
58.3409
51.5485
46.2812
42.2388
39.0394
36.3068
33.7569
31.2738
28.9357
26.9124
25.3845
24.5209
24.4961
25.5225
27.8728
31.8755
37.8733
46.145
56.8033
69.6985
84.3581
100
-300
-300
-300
-300
-300
-300
-300
-300
-300
-300
100
84.6489
70.1898
57.3598
46.6309
38.171
31.877
27.4554
24.5209
22.6819
21.5997
21.0173
20.7669
20.7669
21.0173
21.5997
22.6819
24.5209
27.4554
31.877
38.171
46.6309
57.3598
70.1898
84.6489
100
-300
-300
-300
-300
-300
-300
-300
-300
-300
-300
-300
-300
-300
-300
100
89.6962
79.9726
71.3007
63.964
58.0244
53.3368
49.5969
46.4068
43.3528
40.1099
36.5944
33.0928
29.9669
27.5034
25.9031
25.3259
25.9472
27.997
31.7682
37.5831
45.7209
56.3166
69.2547
84.0859
100
-300
-300
-300
-300
-300
-300
-300
-300
-300
-300
100
84.6489
70.1898
57.3598
46.6308
38.171
31.877
27.4554
24.5208
22.6819
21.5997
21.0172
20.7668
20.7668
21.0172
21.5997
22.6819
24.5208
27.4554
31.877
38.171
46.6308
57.3598
70.1898
84.6489
100
-300
-300
-300
-300
-300
-300
-300
-300
-300
-300
-300
-300
-300
-300
100
91.7627
83.9855
77.0399
71.1435
66.3292
62.4504
59.2067
56.1776
52.8624
48.7758
43.7456
38.5519
33.8911
30.1774
27.6205
26.3367
26.4387
28.0939
31.5449
37.0865
45.002
55.4691
68.4494
83.5692
100
-300
-300
-300
-300
-300
-300
-300
-300
-300
-300
100
84.6489
70.1898
57.3598
46.6308
38.171
31.877
27.4554
24.5208
22.6819
21.5997
21.0172
20.7668
20.7668
21.0172
21.5997
22.6819
24.5208
27.4554
31.877
38.171
46.6308
57.3598
70.1898
84.6489
100
-300
-300
-300
-300
-300
-300
-300
-300
-300
-300
-300
-300
-300
-300
100
94.2383
88.7959
83.9294
79.7845
76.3716
73.5616
71.0872
68.5272
65.251
60.3488
52.9298
45.2665
38.5646
33.2929
29.5882
27.4691
26.9526
28.1208
31.1495
36.295
43.8452
54.0452
67.0053
82.5661
100
-300
-300
-300
-300
-300
-300
-300
-300
-300
-300
100
84.6489
70.1898
57.3598
46.6308
38.171
31.8769
27.4554
24.5208
22.6819
21.5997
21.0172
20.7668
20.7668
21.0172
21.5997
22.6819
24.5208
27.4554
31.8769
38.171
46.6308
57.3598
70.1898
84.6489
100
-300
-300
-300
-300
-300
-300
-300
-300
-300
-300
-300
-300
-300
-300
100
97.0319
94.2274
91.7174
89.5743
87.7979
86.3085
84.9336
83.3568
80.9352
76.083
64.0795
52.8082
43.6026
36.5837
31.6392
28.6228
27.4274
28.033
30.5327
35.1274
42.0949
51.7523
64.4392
80.5118
100
-300
-300
-300
-300
-300
-300
-300
-300
-300
-300
100
84.6489
70.1898
57.3598
46.6308
38.171
31.8769
27.4554
24.5208
22.6819
21.5997
21.0172
20.7668
20.7668
21.0172
21.5997
22.6819
24.5208
27.4554
31.8769
38.171
46.6308
57.3598
70.1898
84.6489
100
-300
-300
-300
-300
-300
-300
-300
-300
-300
-300
-300
-300
-300
-300
100
100
100
100
100
100
100
100
100
100
100
75.895
59.9706
48.2843
39.6473
33.5513
29.6772
27.8009
27.8009
29.6772
33.5513
39.6473
48.2843
59.9706
75.895
100
100
100
100
100
100
100
100
100
100
100
100
84.6489
70.1898
57.3598
46.6308
38.171
31.8769
27.4554
24.5208
22.6819
21.5997
21.0172
20.7668
20.7668
21.0172
21.5997
22.6819
24.5208
27.4554
31.8769
38.171
46.6308
57.3598
70.1898
84.6489
100
-300
-300
-300
-300
-300
-300
-300
-300
-300
-300
-300
-300
-300
-300
-300
-300
-300
-300
-300
-300
-300
-300
-300
-300
100
80.5118
64.4392
51.7523
42.0949
35.1274
30.5327
28.033
27.4274
28.6228
31.6392
36.5837
43.6025
52.8082
64.0795
76.083
80.9352
83.3568
84.9336
86.3085
87.7979
89.5743
91.7174
94.2274
97.0319
100
100
84.6489
70.1898
57.3598
46.6308
38.171
31.8769
27.4554
24.5208
22.6819
21.5997
21.0172
20.7668
20.7668
21.0172
21.5997
22.6819
24.5208
27.4554
31.8769
38.171
46.6308
57.3598
70.1898
84.6489
100
-300
-300
-300
-300
-300
-300
-300
-300
-300
-300
-300
-300
-300
-300
-300
-300
-300
-300
-300
-300
-300
-300
-300
-300
100
82.5661
67.0053
54.0452
43.8452
36.295
31.1495
28.1208
26.9525
27.4691
29.5882
33.2929
38.5646
45.2665
52.9298
60.3488
65.251
68.5272
71.0872
73.5616
76.3715
79.7845
83.9294
88.7959
94.2383
100
100
84.6489
70.1898
57.3598
46.6308
38.171
31.8769
27.4554
24.5208
22.6819
21.5997
21.0172
20.7668
20.7668
21.0172
21.5997
22.6819
24.5208
27.4554
31.8769
38.171
46.6308
57.3598
70.1898
84.6489
100
-300
-300
-300
-300
-300
-300
-300
-300
-300
-300
-300
-300
-300
-300
-300
-300
-300
-300
-300
-300
-300
-300
-300
-300
100
83.5692
68.4493
55.4691
45.0019
37.0865
31.5449
28.0939
26.4386
26.3367
27.6204
30.1773
33.8911
38.5519
43.7456
48.7758
52.8624
56.1775
59.2067
62.4504
66.3292
71.1435
77.0399
83.9855
91.7627
100
100
84.6489
70.1898
57.3598
46.6308
38.171
31.8769
27.4554
24.5208
22.6819
21.5997
21.0172
20.7668
20.7668
21.0172
21.5997
22.6819
24.5208
27.4554
31.8769
38.171
46.6308
57.3598
70.1898
84.6489
100
-300
-300
-300
-300
-300
-300
-300
-300
-300
-300
-300
-300
-300
-300
-300
-300
-300
-300
-300
-300
-300
-300
-300
-300
100
84.0859
69.2547
56.3165
45.7209
37.5831
31.7681
27.9969
25.9471
25.3259
25.903
27.5034
29.9668
33.0928
36.5943
40.1098
43.3527
46.4067
49.5969
53.3368
58.0243
63.9639
71.3007
79.9725
89.6961
100
100
84.6489
70.1898
57.3598
46.6308
38.171
31.8769
27.4554
24.5208
22.6819
21.5997
21.0172
20.7668
20.7668
21.0172
21.5997
22.6819
24.5208
27.4554
31.8769
38.171
46.6308
57.3598
70.1898
84.6489
100
-300
-300
-300
-300
-300
-300
-300
-300
-300
-300
-300
-300
-300
-300
-300
-300
-300
-300
-300
-300
-300
-300
-300
-300
100
84.3581
69.6984
56.8032
46.1448
37.8732
31.8753
27.8726
25.5223
24.4959
24.5207
25.3843
26.9122
28.9355
31.2736
33.7567
36.3066
39.0392
42.2386
46.281
51.5484
58.3407
66.7939
76.8167
88.0698
100
100
84.6489
70.1898
57.3598
46.6308
38.171
31.8769
27.4554
24.5208
22.6819
21.5997
21.0172
20.7668
20.7668
21.0172
21.5997
22.6819
24.5208
27.4554
31.8769
38.171
46.6308
57.3598
70.1898
84.6489
100
-300
-300
-300
-300
-300
-300
-300
-300
-300
-300
-300
-300
-300
-300
-300
-300
-300
-300
-300
-300
-300
-300
-300
-300
100
84.5016
69.9385
57.0731
46.3827
38.0311
31.9144
27.7519
25.1858
23.8633
23.4847
23.8168
24.6827
25.9441
27.4932
29.2692
31.3007
33.7478
36.8972
41.116
46.7797
54.1839
63.4542
74.4748
86.862
100
100
84.6489
70.1898
57.3598
46.6308
38.171
31.8769
27.4554
24.5208
22.6819
21.5997
21.0172
20.7668
20.7668
21.0172
21.5997
22.6819
24.5208
27.4554
31.8769
38.171
46.6308
57.3598
70.1898
84.6489
100
-300
-300
-300
-300
-300
-300
-300
-300
-300
-300
-300
-300
-300
-300
-300
-300
-300
-300
-300
-300
-300
-300
-300
-300
100
84.5762
70.0651
57.2175
46.5099
38.1109
31.9195
27.6516
24.9389
23.4131
22.7574
22.7274
23.1482
23.9041
24.933
26.2371
27.9049
30.1324
33.2199
37.5373
43.4596
51.2803
61.1166
72.8335
86.0149
100
100
84.6489
70.1898
57.3598
46.6308
38.171
31.8769
27.4554
24.5208
22.6819
21.5997
21.0172
20.7668
20.7668
21.0172
21.5997
22.6819
24.5208
27.4554
31.8769
38.171
46.6308
57.3597
70.1898
84.6489
100
-300
-300
-300
-300
-300
-300
-300
-300
-300
-300
-300
-300
-300
-300
-300
-300
-300
-300
-300
-300
-300
-300
-300
-300
100
84.6141
70.13
57.2918
46.5747
38.1481
31.9113
27.5771
24.7702
23.1123
22.2768
22.0133
22.1494
22.5839
23.2826
24.2836
25.7105
27.7842
30.8181
35.1883
41.2721
49.3619
59.5692
71.7458
85.4533
100
100
84.6489
70.1898
57.3598
46.6308
38.171
31.8769
27.4554
24.5208
22.6819
21.5997
21.0172
20.7668
20.7668
21.0172
21.5997
22.6819
24.5208
27.4553
31.8769
38.1709
46.6307
57.3597
70.1897
84.6489
100
-300
-300
-300
-300
-300
-300
-300
-300
-300
-300
-300
-300
-300
-300
-300
-300
-300
-300
-300
-300
-300
-300
-300
-300
100
84.6327
70.1621
57.3285
46.606
38.1638
31.9004
27.5264
24.662
22.9231
21.9772
21.5707
21.5332
21.7726
22.2705
23.0854
24.3613
26.3347
29.3293
33.7266
39.9066
48.1616
58.5995
71.0635
85.1008
100
100
84.6489
70.1898
57.3598
46.6308
38.171
31.8769
27.4554
24.5208
22.6819
21.5997
21.0172
20.7668
20.7668
21.0172
21.5996
22.6818
24.5207
27.4552
31.8768
38.1708
46.6306
57.3596
70.1896
84.6488
100
-300
-300
-300
-300
-300
-300
-300
-300
-300
-300
-300
-300
-300
-300
-300
-300
-300
-300
-300
-300
-300
-300
-300
-300
100
84.6416
70.1773
57.3458
46.6203
38.1694
31.8912
27.4945
24.5968
22.8106
21.8003
21.3107
21.1726
21.2988
21.6801
22.3861
23.5722
25.4844
28.4529
32.8636
39.0983
47.4498
58.0237
70.658
84.8911
100
100
84.6489
70.1898
57.3598
46.6308
38.171
31.8769
27.4554
24.5208
22.6819
21.5997
21.0172
20.7668
20.7668
21.0172
21.5996
22.6817
24.5206
27.4551
31.8765
38.1705
46.6303
57.3592
70.1894
84.6487
100
-300
-300
-300
-300
-300
-300
-300
-300
-300
-300
-300
-300
-300
-300
-300
-300
-300
-300
-300
-300
-300
-300
-300
-300
100
84.6456
70.1841
57.3534
46.6262
38.1708
31.8847
27.4756
24.5596
22.7473
21.7014
21.1658
20.9721
21.0358
21.3525
21.9978
23.1332
25.0101
27.9628
32.3797
38.6442
47.0492
57.6992
70.4293
84.7729
100
100
84.6489
70.1898
57.3598
46.6308
38.171
31.8769
27.4554
24.5208
22.6819
21.5997
21.0172
20.7668
20.7668
21.0171
21.5995
22.6815
24.5203
27.4546
31.8759
38.1697
46.6294
57.3584
70.1887
84.6483
100
-300
-300
-300
-300
-300
-300
-300
-300
-300
-300
-300
-300
-300
-300
-300
-300
-300
-300
-300
-300
-300
-300
-300
-300
100
84.647
70.1866
57.3561
46.6279
38.1703
31.8802
27.4648
24.5394
22.7134
21.6488
21.089
20.866
20.8969
21.1794
21.7924
22.9006
24.7583
27.7021
32.1217
38.4017
46.835
57.5256
70.3069
84.7095
100
100
84.6489
70.1898
57.3598
46.6308
38.171
31.8769
27.4554
24.5208
22.6819
21.5997
21.0172
20.7667
20.7667
21.0169
21.5992
22.6811
24.5195
27.4535
31.8745
38.1679
46.6274
57.3565
70.1872
84.6475
100
-300
-300
-300
-300
-300
-300
-300
-300
-300
-300
-300
-300
-300
-300
-300
-300
-300
-300
-300
-300
-300
-300
-300
-300
100
84.6469
70.1863
57.3556
46.6269
38.1684
31.8766
27.4583
24.5284
22.6958
21.622
21.0502
20.8126
20.8269
21.0922
21.6889
22.7833
24.6311
27.5701
31.9909
38.2785
46.7261
57.4372
70.2445
84.6772
100
100
84.6489
70.1898
57.3598
46.6308
38.171
31.8769
27.4554
24.5208
22.6819
21.5996
21.0171
20.7667
20.7665
21.0166
21.5985
22.68
24.5179
27.4511
31.8711
38.1639
46.6229
57.3521
70.1837
84.6455
100
-300
-300
-300
-300
-300
-300
-300
-300
-300
-300
-300
-300
-300
-300
-300
-300
-300
-300
-300
-300
-300
-300
-300
-300
100
84.6453
70.1833
57.3518
46.6228
38.1641
31.8721
27.4532
24.5218
22.6866
21.6087
21.0313
20.7868
20.7933
21.0504
21.6392
22.7269
24.5698
27.5064
31.9277
38.219
46.6733
57.3943
70.2142
84.6616
100
100
84.6489
70.1898
57.3598
46.6308
38.171
31.8769
27.4554
24.5208
22.6818
21.5996
21.017
20.7665
20.7661
21.0158
21.5972
22.6777
24.5143
27.4458
31.864
38.155
46.613
57.3424
70.1758
84.6411
100
-300
-300
-300
-300
-300
-300
-300
-300
-300
-300
-300
-300
-300
-300
-300
-300
-300
-300
-300
-300
-300
-300
-300
-300
100
84.641
70.1757
57.3423
46.613
38.1551
31.8644
27.4467
24.516
22.6805
21.6015
21.0221
20.7747
20.7778
21.0312
21.6164
22.701
24.5417
27.4771
31.8986
38.1915
46.649
57.3745
70.2003
84.6543
100
100
84.6489
70.1898
57.3598
46.6308
38.171
31.8769
27.4554
24.5208
22.6818
21.5995
21.0169
20.7661
20.7653
21.0144
21.5945
22.6732
24.507
27.435
31.8492
38.1364
46.5921
57.3218
70.1591
84.6316
100
-300
-300
-300
-300
-300
-300
-300
-300
-300
-300
-300
-300
-300
-300
-300
-300
-300
-300
-300
-300
-300
-300
-300
-300
100
84.6316
70.159
57.3218
46.5921
38.1365
31.8494
27.4354
24.5077
22.6743
21.5963
21.0169
20.7688
20.7707
21.0226
21.6064
22.6896
24.5293
27.4642
31.8858
38.1794
46.6382
57.3658
70.1941
84.6511
100
100
84.6489
70.1898
57.3598
46.6308
38.171
31.8769
27.4553
24.5208
22.6817
21.5994
21.0165
20.7654
20.7639
21.0115
21.5894
22.6644
24.4929
27.4138
31.8199
38.0993
46.5499
57.2798
70.1246
84.612
100
-300
-300
-300
-300
-300
-300
-300
-300
-300
-300
-300
-300
-300
-300
-300
-300
-300
-300
-300
-300
-300
-300
-300
-300
100
84.612
70.1246
57.2798
46.5499
38.0994
31.8199
27.414
24.4931
22.6648
21.5901
21.0125
20.7652
20.7672
21.0188
21.602
22.6848
24.5241
27.4588
31.8804
38.1743
46.6337
57.3621
70.1915
84.6498
100
100
84.6489
70.1898
57.3598
46.6308
38.171
31.8769
27.4553
24.5207
22.6816
21.5991
21.0159
20.7641
20.7612
21.0064
21.58
22.6482
24.4666
27.3742
31.7644
38.0283
46.468
57.1972
70.056
84.5727
100
-300
-300
-300
-300
-300
-300
-300
-300
-300
-300
-300
-300
-300
-300
-300
-300
-300
-300
-300
-300
-300
-300
-300
-300
100
84.5727
70.056
57.1972
46.468
38.0283
31.7644
27.3742
24.4667
22.6483
21.5803
21.0068
20.7618
20.7648
21.0168
21.6001
22.6828
24.522
27.4566
31.8782
38.1722
46.6319
57.3607
70.1904
84.6492
100
100
84.6489
70.1898
57.3598
46.6308
38.171
31.8769
27.4553
24.5207
22.6815
21.5987
21.0149
20.7619
20.7568
20.9977
21.5639
22.62
24.4205
27.3036
31.6643
37.898
46.3152
57.0405
69.9237
84.496
100
-300
-300
-300
-300
-300
-300
-300
-300
-300
-300
-300
-300
-300
-300
-300
-300
-300
-300
-300
-300
-300
-300
-300
-300
100
84.496
69.9237
57.0405
46.3152
37.898
31.6643
27.3036
24.4205
22.6201
21.564
20.9978
20.757
20.7622
21.0152
21.599
22.6819
24.5211
27.4558
31.8774
38.1714
46.6312
57.3601
70.19
84.649
100
100
84.6489
70.1898
57.3598
46.6308
38.171
31.8769
27.4553
24.5205
22.6812
21.598
21.0133
20.7584
20.7496
20.9836
21.5375
22.5735
24.3435
27.1841
31.4919
37.6696
46.0416
56.7533
69.6758
84.3495
100
-300
-300
-300
-300
-300
-300
-300
-300
-300
-300
-300
-300
-300
-300
-300
-300
-300
-300
-300
-300
-300
-300
-300
-300
100
84.3495
69.6758
56.7533
46.0416
37.6696
31.4919
27.1841
24.3435
22.5736
21.5375
20.9836
20.7497
20.7585
21.0135
21.5981
22.6813
24.5207
27.4554
31.8771
38.1711
46.6309
57.3599
70.1899
84.649
100
100
84.6489
70.1898
57.3598
46.6308
38.171
31.8769
27.4552
24.5204
22.6807
21.5969
21.011
20.7532
20.7387
20.962
21.4968
22.5011
24.2218
26.9922
31.21
37.287
45.5709
56.2439
69.2215
84.0731
100
-300
-300
-300
-300
-300
-300
-300
-300
-300
-300
-300
-300
-300
-300
-300
-300
-300
-300
-300
-300
-300
-300
-300
-300
100
84.0731
69.2215
56.2439
45.5709
37.287
31.21
26.9923
24.2218
22.5011
21.4968
20.962
20.7387
20.7533
21.011
21.597
22.6808
24.5204
27.4552
31.8769
38.171
46.6308
57.3598
70.1898
84.6489
100
100
84.6489
70.1898
57.3598
46.6308
38.171
31.8768
27.4551
24.5201
22.6801
21.5955
21.0076
20.7458
20.7232
20.9309
21.4378
22.3948
24.0406
26.7014
30.7728
36.6773
44.7944
55.3681
68.4026
83.5508
100
-300
-300
-300
-300
-300
-300
-300
-300
-300
-300
-300
-300
-300
-300
-300
-300
-300
-300
-300
-300
-300
-300
-300
-300
100
83.5508
68.4026
55.3681
44.7944
36.6773
30.7728
26.7014
24.0406
22.3948
21.4378
20.9309
20.7232
20.7458
21.0076
21.5955
22.6801
24.5201
27.4551
31.8769
38.171
46.6308
57.3598
70.1898
84.6489
100
100
84.6489
70.1898
57.3598
46.6308
38.1709
31.8768
27.455
24.5198
22.6793
21.5936
21.0032
20.736
20.7024
20.8891
21.3576
22.2483
23.7872
26.2867
30.1337
35.7567
43.5715
53.9106
66.9413
82.5395
100
-300
-300
-300
-300
-300
-300
-300
-300
-300
-300
-300
-300
-300
-300
-300
-300
-300
-300
-300
-300
-300
-300
-300
-300
100
82.5395
66.9413
53.9106
43.5715
35.7567
30.1337
26.2867
23.7872
22.2483
21.3576
20.8891
20.7024
20.736
21.0032
21.5936
22.6793
24.5198
27.455
31.8768
38.1709
46.6308
57.3598
70.1898
84.6489
100
100
84.6489
70.1898
57.3598
46.6308
38.1709
31.8768
27.4548
24.5194
22.6784
21.5912
20.9977
20.7238
20.6765
20.8364
21.2555
22.0599
23.4562
25.7342
29.2596
34.4519
41.7496
51.5793
64.3517
80.4702
100
-300
-300
-300
-300
-300
-300
-300
-300
-300
-300
-300
-300
-300
-300
-300
-300
-300
-300
-300
-300
-300
-300
-300
-300
100
80.4702
64.3517
51.5793
41.7496
34.4519
29.2596
25.7342
23.4562
22.0599
21.2555
20.8364
20.6765
20.7238
20.9977
21.5912
22.6784
24.5194
27.4548
31.8768
38.1709
46.6308
57.3598
70.1898
84.6489
100
100
84.6489
70.1898
57.3598
46.6308
38.1709
31.8767
27.4547
24.519
22.6773
21.5885
20.9914
20.7097
20.6462
20.7745
21.1345
21.8342
23.0544
25.0515
28.1529
32.7405
39.2292
48.0676
59.8476
75.818
100
100
100
100
100
100
100
100
100
100
100
100
100
100
100
100
100
100
100
100
100
100
100
100
100
100
75.818
59.8476
48.0676
39.2292
32.7405
28.1529
25.0515
23.0544
21.8342
21.1345
20.7745
20.6462
20.7097
20.9914
21.5885
22.6773
24.519
27.4547
31.8767
38.1709
46.6308
57.3598
70.1898
84.6489
100
100
84.6489
70.1898
57.3598
46.6308
38.1709
31.8766
27.4545
24.5185
22.6761
21.5856
20.9846
20.6944
20.6133
20.7068
21.0014
21.5839
22.6041
24.2758
26.8716
30.7042
36.0958
43.3371
52.6283
63.8947
75.818
80.4702
82.5395
83.5508
84.0731
84.3495
84.496
84.5727
84.612
84.6316
84.641
84.6453
84.6469
84.6469
84.6453
84.641
84.6316
84.612
84.5727
84.496
84.3495
84.0731
83.5508
82.5395
80.4702
75.818
63.8947
52.6283
43.3371
36.0958
30.7042
26.8716
24.2758
22.6041
21.5839
21.0014
20.7068
20.6133
20.6944
20.9846
21.5856
22.6761
24.5185
27.4545
31.8766
38.1709
46.6308
57.3598
70.1898
84.6489
100
100
84.6489
70.1898
57.3598
46.6308
38.1709
31.8766
27.4543
24.5181
22.6749
21.5827
20.9777
20.6789
20.58
20.6381
20.8656
21.3272
22.1393
23.4695
25.528
28.5472
32.7429
38.2511
45.024
52.6283
59.8476
64.3517
66.9413
68.4026
69.2215
69.6758
69.9237
70.056
70.1246
70.159
70.1757
70.1833
70.1862
70.1862
70.1833
70.1757
70.159
70.1246
70.056
69.9237
69.6758
69.2215
68.4026
66.9413
64.3517
59.8476
52.6283
45.024
38.2511
32.7429
28.5472
25.528
23.4695
22.1393
21.3272
20.8656
20.6381
20.58
20.6789
20.9777
21.5827
22.6749
24.5181
27.4543
31.8766
38.1709
46.6308
57.3598
70.1898
84.6489
100
100
84.6489
70.1898
57.3598
46.6308
38.1709
31.8765
27.4542
24.5177
22.6738
21.58
20.9713
20.6644
20.5486
20.5732
20.7372
21.0838
21.6977
22.7017
24.2476
26.4953
29.5761
33.535
38.2511
43.3371
48.0676
51.5793
53.9106
55.3681
56.2439
56.7533
57.0405
57.1972
57.2798
57.3218
57.3422
57.3516
57.3552
57.3552
57.3516
57.3422
57.3218
57.2798
57.1972
57.0405
56.7533
56.2439
55.3681
53.9106
51.5793
48.0676
43.3371
38.2511
33.535
29.5761
26.4953
24.2476
22.7017
21.6977
21.0838
20.7372
20.5732
20.5486
20.6644
20.9713
21.58
22.6738
24.5177
27.4542
31.8765
38.1709
46.6308
57.3598
70.1898
84.6489
100
100
84.6489
70.1898
57.3598
46.6308
38.1709
31.8765
27.4541
24.5173
22.6729
21.5776
20.9657
20.6518
20.5212
20.5163
20.6244
20.8699
21.3098
22.0285
23.1291
24.7155
26.8628
29.5761
32.7429
36.0958
39.2292
41.7496
43.5715
44.7944
45.5709
46.0416
46.3152
46.468
46.5499
46.592
46.6128
46.6224
46.6261
46.6261
46.6224
46.6128
46.592
46.5499
46.468
46.3152
46.0416
45.5709
44.7944
43.5715
41.7496
39.2292
36.0958
32.7429
29.5761
26.8628
24.7155
23.1291
22.0285
21.3098
20.8699
20.6244
20.5163
20.5212
20.6518
20.9657
21.5776
22.6729
24.5173
27.4541
31.8765
38.1709
46.6308
57.3598
70.1898
84.6489
100
100
84.649
70.1899
57.3599
46.6309
38.171
31.8766
27.4541
24.5171
22.6722
21.5758
20.9612
20.6415
20.4988
20.4698
20.5322
20.6953
20.9937
21.4817
22.2257
23.2897
24.7155
26.4953
28.5472
30.7042
32.7405
34.4519
35.7567
36.6773
37.287
37.6696
37.898
38.0283
38.0993
38.1364
38.1548
38.1634
38.1667
38.1667
38.1634
38.1548
38.1364
38.0993
38.0283
37.898
37.6696
37.287
36.6773
35.7567
34.4519
32.7405
30.7042
28.5472
26.4953
24.7155
23.2897
22.2257
21.4817
20.9937
20.6953
20.5322
20.4698
20.4988
20.6415
20.9612
21.5758
22.6722
24.5171
27.4541
31.8766
38.171
46.6309
57.3599
70.1899
84.649
100
100
84.649
70.19
57.3601
46.6312
38.1713
31.8769
27.4544
24.5173
22.672
21.5747
20.9581
20.6339
20.482
20.4346
20.4621
20.5625
20.7537
21.0682
21.5462
22.2257
23.1291
24.2476
25.528
26.8716
28.1529
29.2596
30.1337
30.7728
31.21
31.4919
31.6643
31.7644
31.8199
31.8491
31.8638
31.8707
31.8734
31.8734
31.8707
31.8638
31.8491
31.8199
31.7644
31.6643
31.4919
31.21
30.7728
30.1337
29.2596
28.1529
26.8716
25.528
24.2476
23.1291
22.2257
21.5462
21.0682
20.7537
20.5625
20.4621
20.4346
20.482
20.6339
20.9581
21.5747
22.672
24.5173
27.4544
31.8769
38.1713
46.6312
57.3601
70.19
84.649
100
100
84.6493
70.1905
57.3607
46.6319
38.1721
31.8778
27.4553
24.5182
22.6726
21.5747
20.9567
20.6293
20.4707
20.4101
20.4128
20.4685
20.5838
20.7761
21.0682
21.4817
22.0285
22.7017
23.4695
24.2758
25.0515
25.7342
26.2867
26.7014
26.9922
27.1841
27.3036
27.3742
27.4138