# vtk DataFile Version 2.0
LBE two cylinders
ASCII
DATASET STRUCTURED_POINTS
DIMENSIONS 76 76 1
ASPECT_RATIO 1 1 1
ORIGIN 0 0 0
POINT_DATA 5776
SCALARS temp double 1
LOOKUP_TABLE default
100
100
100
100
100
100
100
100
100
100
100
100
100
100
100
100
100
100
100
100
100
100
100
100
100
100
-300
-300
-300
-300
-300
-300
-300
-300
-300
-300
-300
-300
-300
-300
100
100
100
100
100
100
100
100
100
100
100
100
100
100
100
100
100
100
100
100
100
100
100
100
100
100
-300
-300
-300
-300
-300
-300
-300
-300
-300
-300
100
99.0052
98.0311
97.0972
96.2212
95.4182
94.7002
94.076
93.5516
93.1305
92.8145
92.6039
92.4986
92.4986
92.6039
92.8145
93.1305
93.5516
94.076
94.7002
95.4182
96.2212
97.0972
98.0311
99.0052
100
-300
-300
-300
-300
-300
-300
-300
-300
-300
-300
-300
-300
-300
-300
100
99.0087
98.0379
97.1071
96.2339
95.4331
94.7168
94.0937
93.5699
93.1489
92.8323
92.6208
92.5143
92.5129
92.6164
92.8254
93.1398
93.5592
94.0821
94.705
95.4219
96.2239
97.0991
98.0323
99.0058
100
-300
-300
-300
-300
-300
-300
-300
-300
-300
-300
100
98.03
96.1009
94.2515
92.5168
90.9265
89.5046
88.2685
87.23
86.3962
85.7703
85.3532
85.1449
85.1449
85.3532
85.7703
86.3962
87.23
88.2685
89.5046
90.9265
92.5168
94.2515
96.1009
98.03
100
-300
-300
-300
-300
-300
-300
-300
-300
-300
-300
-300
-300
-300
-300
100
98.0378
96.1161
94.2736
92.5449
90.9596
89.5414
88.3079
87.2707
86.4369
85.8099
85.3909
85.1797
85.1764
85.3812
85.7945
86.4167
87.2469
88.2821
89.5153
90.9347
92.5228
94.2557
96.1035
98.0313
100
-300
-300
-300
-300
-300
-300
-300
-300
-300
-300
100
97.0928
94.2459
91.5166
88.9566
86.6098
84.5114
82.6872
81.1548
79.9243
79.0006
78.3851
78.0776
78.0776
78.3851
79.0006
79.9243
81.1548
82.6872
84.5114
86.6098
88.9566
91.5166
94.2459
97.0928
100
-300
-300
-300
-300
-300
-300
-300
-300
-300
-300
-300
-300
-300
-300
100
97.1065
94.2727
91.5555
89.0061
86.6681
84.5764
82.7566
81.2264
79.996
79.0704
78.4514
78.139
78.1332
78.4343
79.0431
79.9602
81.1845
82.7112
84.5302
86.6242
88.9671
91.5239
94.2505
97.095
100
-300
-300
-300
-300
-300
-300
-300
-300
-300
-300
100
96.2098
92.4982
88.9399
85.6024
82.5428
79.807
77.4288
75.4309
73.8267
72.6224
71.82
71.4191
71.4191
71.82
72.6224
73.8267
75.4309
77.4288
79.807
82.5428
85.6024
88.9399
92.4982
96.2098
100
-300
-300
-300
-300
-300
-300
-300
-300
-300
-300
-300
-300
-300
-300
100
96.2321
92.542
89.0035
85.6833
82.6381
79.9132
77.5423
75.548
73.9439
72.7366
71.9284
71.5196
71.51
71.9004
72.6919
73.8854
75.4793
77.4677
79.8375
82.566
85.6194
88.9517
92.5055
96.2133
100
-300
-300
-300
-300
-300
-300
-300
-300
-300
-300
100
95.3942
90.8839
86.5599
82.5042
78.7863
75.4618
72.5718
70.144
68.1946
66.7313
65.7562
65.269
65.269
65.7562
66.7313
68.1946
70.144
72.5718
75.4618
78.7863
82.5042
86.5599
90.8839
95.3942
100
-300
-300
-300
-300
-300
-300
-300
-300
-300
-300
-300
-300
-300
-300
100
95.4293
90.9529
86.6601
82.6317
78.9364
75.6292
72.7507
70.3287
68.3795
66.9113
65.9272
65.4274
65.4123
65.8829
66.8407
68.2869
70.22
72.6329
75.5095
78.8225
82.5307
86.5782
90.8953
95.3996
100
-300
-300
-300
-300
-300
-300
-300
-300
-300
-300
100
94.6556
89.422
84.4047
79.6986
75.3845
71.527
68.1736
65.3565
63.0945
61.3966
60.2652
59.6999
59.6999
60.2652
61.3966
63.0945
65.3565
68.1736
71.527
75.3845
79.6986
84.4047
89.422
94.6556
100
-300
-300
-300
-300
-300
-300
-300
-300
-300
-300
-300
-300
-300
-300
100
94.7097
89.5283
84.559
79.895
75.6158
71.7849
68.4493
65.6411
63.3795
61.6741
60.5286
59.9439
59.9206
60.4601
61.5648
63.2363
65.4731
68.2671
71.5999
75.4397
79.7388
84.4325
89.4393
94.6638
100
-300
-300
-300
-300
-300
-300
-300
-300
-300
-300
100
93.9998
88.1242
82.4913
77.2078
72.3644
68.0336
64.2688
61.1061
58.5667
56.6604
55.3902
54.7556
54.7556
55.3902
56.6604
58.5667
61.1061
64.2688
68.0336
72.3644
77.2078
82.4913
88.1242
93.9998
100
-300
-300
-300
-300
-300
-300
-300
-300
-300
-300
-300
-300
-300
-300
100
94.0817
88.2847
82.7243
77.5046
72.714
68.4235
64.6858
61.5366
58.9977
57.0802
55.7886
55.1245
55.089
55.6845
56.9141
58.7801
61.2814
64.409
68.1427
72.4467
77.2676
82.5323
88.1497
94.012
100
-300
-300
-300
-300
-300
-300
-300
-300
-300
-300
100
93.429
86.9944
80.8257
75.0396
69.7355
64.9927
60.8698
57.4063
54.6253
52.5377
51.1467
50.4518
50.4518
51.1467
52.5377
54.6253
57.4063
60.8698
64.9927
69.7355
75.0396
80.8257
86.9944
93.429
100
-300
-300
-300
-300
-300
-300
-300
-300
-300
-300
-300
-300
-300
-300
100
93.5505
87.2328
81.1718
75.4804
70.2549
65.5722
61.4896
58.0463
55.2662
53.1619
51.7389
50.9999
50.9469
51.5833
52.9136
54.9411
57.665
61.0763
65.1529
69.8559
75.1267
80.8853
87.0313
93.4466
100
-300
-300
-300
-300
-300
-300
-300
-300
-300
-300
100
92.9418
86.0301
79.4041
73.189
67.4916
62.3972
57.9688
54.2485
51.2614
49.0191
47.525
46.7785
46.7785
47.525
49.0191
51.2614
54.2485
57.9688
62.3972
67.4916
73.189
79.4041
86.0301
92.9418
100
-300
-300
-300
-300
-300
-300
-300
-300
-300
-300
-300
-300
-300
-300
100
93.1193
86.3782
79.9096
73.833
68.2507
63.2443
58.8749
55.1844
52.1986
49.9317
48.3907
47.5793
47.5014
48.1618
49.5665
51.7205
54.6238
58.2673
62.6281
67.6644
73.3133
79.4887
86.0823
92.9666
100
-300
-300
-300
-300
-300
-300
-300
-300
-300
-300
100
92.5341
85.2231
78.2143
71.6402
65.6138
60.2251
55.5409
51.6058
48.4461
46.0744
44.494
43.7044
43.7044
44.494
46.0744
48.4461
51.6058
55.5409
60.2251
65.6138
71.6402
78.2143
85.2231
92.5341
100
-300
-300
-300
-300
-300
-300
-300
-300
-300
-300
-300
-300
-300
-300
100
92.789
85.7232
78.9406
72.5659
66.705
61.4433
56.8443
52.9522
49.7946
47.3873
45.739
44.8555
44.7425
45.4073
46.8583
49.1021
52.1405
55.9649
60.5515
65.8569
71.8142
78.332
85.2953
92.5682
100
-300
-300
-300
-300
-300
-300
-300
-300
-300
-300
100
92.1995
84.5608
77.2378
70.3691
64.0726
58.4425
53.5484
49.437
46.1358
43.6577
42.0066
41.1816
41.1816
42.0066
43.6577
46.1358
49.437
53.5484
58.4425
64.0726
70.3691
77.2378
84.5608
92.1995
100
-300
-300
-300
-300
-300
-300
-300
-300
-300
-300
-300
-300
-300
-300
100
92.5596
85.2675
78.2647
71.6782
65.6164
60.1663
55.3935
51.3433
48.0451
45.5165
43.7685
42.8094
42.6481
43.295
44.7614
47.057
50.1855
54.1396
58.8953
64.4079
70.6074
77.398
84.6583
92.2454
100
-300
-300
-300
-300
-300
-300
-300
-300
-300
-300
100
91.9302
84.0278
76.452
69.3462
62.8323
57.0079
51.9448
47.6915
44.2764
41.7128
40.0047
39.1513
39.1513
40.0047
41.7128
44.2764
47.6915
51.9448
57.0079
62.8323
69.3462
76.452
84.0278
91.9302
100
-300
-300
-300
-300
-300
-300
-300
-300
-300
-300
-300
-300
-300
-300
100
92.431
85.0107
77.8805
71.168
64.9816
59.4089
54.5157
50.3483
46.9375
44.3031
42.4588
41.4167
41.1897
41.7926
43.2409
45.5482
48.721
52.754
57.624
63.2852
69.6654
76.6646
84.1561
91.9902
100
-300
-300
-300
-300
-300
-300
-300
-300
-300
-300
100
91.7176
83.607
75.8317
68.5387
61.8533
55.8755
50.6791
46.3138
42.8088
40.1778
38.4247
37.5488
37.5488
38.4247
40.1778
42.8088
46.3138
50.6791
55.8755
61.8533
68.5387
75.8317
83.607
91.7176
100
-300
-300
-300
-300
-300
-300
-300
-300
-300
-300
-300
-300
-300
-300
100
92.4029
84.9524
77.7878
71.0343
64.799
59.1679
54.2059
49.9595
46.4606
43.7315
41.7897
40.652
40.3369
40.8652
42.2582
44.5344
47.7045
51.7661
56.6973
62.452
68.9563
76.1066
83.7711
91.7937
100
-300
-300
-300
-300
-300
-300
-300
-300
-300
-300
100
91.553
83.2813
75.3515
67.9136
61.0954
54.9988
49.6992
45.2473
41.6726
38.9894
37.2015
36.3082
36.3082
37.2015
38.9894
41.6726
45.2473
49.6992
54.9988
61.0954
67.9136
75.3515
83.2813
91.553
100
-300
-300
-300
-300
-300
-300
-300
-300
-300
-300
-300
-300
-300
-300
100
92.4761
85.094
77.9881
71.2793
65.0705
59.4444
54.4638
50.1743
46.6085
43.7913
41.7452
40.4933
40.0617
40.4793
41.7749
43.9738
47.0923
51.1318
56.0726
61.8691
68.4461
75.6967
83.4843
91.6461
100
-300
-300
-300
-300
-300
-300
-300
-300
-300
-300
100
91.428
83.034
74.9868
67.4389
60.5198
54.3331
48.9552
44.4374
40.8099
38.087
36.2727
35.3662
35.3662
36.2727
38.087
40.8099
44.4374
48.9552
54.3331
60.5198
67.4389
74.9868
83.034
91.428
100
-300
-300
-300
-300
-300
-300
-300
-300
-300
-300
-300
-300
-300
-300
100
92.6521
85.4384
78.4859
71.9085
65.8027
60.2458
55.2964
50.9978
47.3828
44.4795
42.3161
40.9244
40.3407
40.6045
41.7548
43.8258
46.8408
50.8064
55.7062
61.4957
68.0988
75.4058
83.2751
91.5367
100
-300
-300
-300
-300
-300
-300
-300
-300
-300
-300
100
91.3349
82.8497
74.7152
67.0853
60.0911
53.8372
48.4009
43.8341
40.1673
37.4148
35.5808
34.6645
34.6645
35.5808
37.4148
40.1673
43.8341
48.4009
53.8372
60.0911
67.0853
74.7152
82.8497
91.3349
100
-300
-300
-300
-300
-300
-300
-300
-300
-300
-300
-300
-300
-300
-300
100
92.9331
85.9902
79.2882
72.9314
67.0074
61.5855
56.718
52.4439
48.7951
45.8026
43.502
41.9365
41.1561
41.2146
42.1645
44.0512
46.9071
50.7452
55.5535
61.2894
67.8767
75.203
83.1214
91.454
100
-300
-300
-300
-300
-300
-300
-300
-300
-300
-300
100
91.2669
82.715
74.5166
66.8269
59.7778
53.4748
47.9958
43.3932
39.6976
36.9236
35.0752
34.1517
34.1517
35.0752
36.9236
39.6976
43.3932
47.9958
53.4748
59.7778
66.8269
74.5166
82.715
91.2669
100
-300
-300
-300
-300
-300
-300
-300
-300
-300
-300
-300
-300
-300
-300
100
93.3217
86.7546
80.4033
74.3598
68.7002
63.4829
58.7508
54.5359
50.8669
47.777
45.3111
43.5274
42.4948
42.2866
42.9723
44.6118
47.2483
50.9027
55.5683
61.2056
67.739
75.0541
82.9984
91.3849
100
-300
-300
-300
-300
-300
-300
-300
-300
-300
-300
100
91.2181
82.6185
74.3743
66.6416
59.5531
53.215
47.7054
43.0771
39.3609
36.5714
34.7127
33.7841
33.7841
34.7127
36.5714
39.3609
43.0771
47.7054
53.215
59.5531
66.6416
74.3743
82.6185
91.2181
100
-300
-300
-300
-300
-300
-300
-300
-300
-300
-300
-300
-300
-300
-300
100
93.8199
87.7364
81.8392
76.206
70.8984
65.961
61.4234
57.3061
53.6306
50.4302
47.7604
45.7008
44.3469
43.7979
44.146
45.4679
47.8195
51.2308
55.7012
61.1956
67.6402
74.9198
82.8769
91.3138
100
-300
-300
-300
-300
-300
-300
-300
-300
-300
-300
100
91.1838
82.5505
74.2741
66.5112
59.3951
53.0321
47.5011
42.8547
39.124
36.3236
34.4576
33.5254
33.5254
34.4576
36.3236
39.124
42.8547
47.5011
53.0321
59.3951
66.5112
74.2741
82.5505
91.1838
100
-300
-300
-300
-300
-300
-300
-300
-300
-300
-300
-300
-300
-300
-300
100
94.4287
88.9377
83.6007
78.479
73.6178
69.044
64.7693
60.7961
57.1308
53.8015
50.8753
48.4635
46.7009
45.7227
45.6486
46.5752
48.5716
51.677
55.8977
61.2043
67.5271
74.7528
82.7203
91.2202
100
-300
-300
-300
-300
-300
-300
-300
-300
-300
-300
100
91.1601
82.5036
74.205
66.4212
59.2859
52.9059
47.36
42.7011
38.9604
36.1525
34.2815
33.3468
33.3468
34.2815
36.1525
38.9604
42.7011
47.36
52.9059
59.2859
66.4212
74.205
82.5036
91.1601
100
-300
-300
-300
-300
-300
-300
-300
-300
-300
-300
-300
-300
-300
-300
100
95.1464
90.3563
85.6865
81.1813
76.8678
72.7528
68.8243
65.057
61.4284
57.9473
54.6905
51.822
49.5386
48.025
47.4339
47.8815
49.4487
52.1827
56.0966
61.1682
67.3357
74.4923
82.4789
91.0755
100
-300
-300
-300
-300
-300
-300
-300
-300
-300
-300
100
91.144
82.4718
74.1581
66.3602
59.212
52.8204
47.2644
42.5971
38.8496
36.0366
34.1622
33.2258
33.2258
34.1622
36.0365
38.8496
42.5971
47.2644
52.8203
59.2119
66.3602
74.1581
82.4718
91.144
100
-300
-300
-300
-300
-300
-300
-300
-300
-300
-300
-300
-300
-300
-300
100
95.9677
91.9824
88.0848
84.3027
80.6455
77.0991
73.6229
70.1518
66.6102
62.9535
59.2523
55.7755
52.8248
50.6509
49.4398
49.3224
50.386
52.682
56.229
61.0136
66.9868
74.0579
82.0813
90.8353
100
-300
-300
-300
-300
-300
-300
-300
-300
-300
-300
100
91.1333
82.4507
74.1269
66.3196
59.1628
52.7635
47.2008
42.5279
38.7759
35.9595
34.0828
33.1453
33.1453
34.0828
35.9594
38.7758
42.5278
47.2008
52.7634
59.1627
66.3196
74.1269
82.4507
91.1333
100
-300
-300
-300
-300
-300
-300
-300
-300
-300
-300
-300
-300
-300
-300
100
96.8823
93.7967
90.7695
87.8146
84.9269
82.0748
79.1898
76.1563
72.8088
68.97
64.6225
60.3009
56.49
53.5153
51.5816
50.8191
51.3101
53.1035
56.2204
60.657
66.3835
73.3396
81.4177
90.4229
100
-300
-300
-300
-300
-300
-300
-300
-300
-300
-300
100
91.1264
82.4369
74.1066
66.2931
59.1307
52.7263
47.1593
42.4827
38.7277
35.9091
34.031
33.0927
33.0927
34.031
35.9091
38.7277
42.4826
47.1592
52.7262
59.1306
66.293
74.1065
82.4369
91.1263
100
-300
-300
-300
-300
-300
-300
-300
-300
-300
-300
-300
-300
-300
-300
100
97.8744
95.7683
93.6963
91.6629
89.6559
87.6359
85.52
83.15
80.2385
76.3109
70.872
65.3128
60.4001
56.4869
53.747
52.2786
52.1424
53.3753
55.9965
60.0106
65.4117
72.1866
80.3081
89.6872
100
-300
-300
-300
-300
-300
-300
-300
-300
-300
-300
100
91.1219
82.428
74.0935
66.2761
59.1101
52.7025
47.1327
42.4537
38.6969
35.8768
33.9978
33.059
33.059
33.9977
35.8767
38.6967
42.4536
47.1325
52.7024
59.1099
66.276
74.0934
82.428
91.1219
100
-300
-300
-300
-300
-300
-300
-300
-300
-300
-300
-300
-300
-300
-300
100
98.9225
97.854
96.8008
95.7632
94.7312
93.6762
92.5346
91.1642
89.2241
85.788
77.992
70.5579
64.3057
59.3735
55.7964
53.5995
52.806
53.4339
55.4946
58.9959
63.9519
70.4025
78.4494
88.2849
100
-300
-300
-300
-300
-300
-300
-300
-300
-300
-300
100
91.1191
82.4225
74.0853
66.2654
59.0971
52.6875
47.1159
42.4355
38.6774
35.8565
33.9768
33.0378
33.0377
33.9767
35.8563
38.6772
42.4352
47.1156
52.6872
59.0968
66.2652
74.0851
82.4223
91.119
100
-300
-300
-300
-300
-300
-300
-300
-300
-300
-300
-300
-300
-300
-300
100
100
100
100
100
100
100
100
100
100
100
85.3181
75.3725
67.7964
61.931
57.5798
54.6865
53.239
53.2369
54.6802
57.5695
61.9172
67.7799
75.3552
85.3041
100
100
100
100
100
100
100
100
100
100
100
100
91.1173
82.419
74.0802
66.2588
59.0891
52.6782
47.1055
42.4242
38.6654
35.8438
33.9638
33.0245
33.0245
33.9636
35.8435
38.665
42.4237
47.105
52.6777
59.0886
66.2584
74.0799
82.4188
91.1172
100
-300
-300
-300
-300
-300
-300
-300
-300
-300
-300
-300
-300
-300
-300
-300
-300
-300
-300
-300
-300
-300
-300
-300
-300
100
88.2862
78.4487
70.3978
63.9419
58.9804
55.4736
53.4076
52.7749
53.5641
55.7573
59.3316
64.2622
70.5145
77.9513
85.7528
89.1918
91.1344
92.5073
93.6519
94.7102
95.7459
96.7875
97.845
98.918
100
100
91.1163
82.4169
74.0772
66.2548
59.0842
52.6726
47.0992
42.4173
38.658
35.8361
33.9558
33.0164
33.0163
33.9555
35.8356
38.6573
42.4165
47.0983
52.6717
59.0833
66.254
74.0765
82.4165
91.116
100
-300
-300
-300
-300
-300
-300
-300
-300
-300
-300
-300
-300
-300
-300
-300
-300
-300
-300
-300
-300
-300
-300
-300
-300
100
89.6796
80.2919
72.1611
65.3768
59.9665
55.944
53.3151
52.0755
52.2062
53.6703
56.4072
60.3189
65.2318
70.7933
76.236
80.1679
83.0841
85.4598
87.5821
89.6094
91.6246
93.6669
95.7484
97.8644
100
100
91.1156
82.4157
74.0753
66.2524
59.0813
52.6692
47.0954
42.4131
38.6535
35.8313
33.9509
33.0113
33.0111
33.9503
35.8305
38.6523
42.4117
47.0938
52.6676
59.0797
66.251
74.0742
82.4149
91.1152
100
-300
-300
-300
-300
-300
-300
-300
-300
-300
-300
-300
-300
-300
-300
-300
-300
-300
-300
-300
-300
-300
-300
-300
-300
100
90.406
81.3839
73.2892
66.3171
60.5757
56.1257
52.997
51.1936
50.6945
51.4509
53.3805
56.3534
60.1644
64.4886
68.8407
72.6858
76.0411
79.0842
81.9804
84.8454
87.7473
90.7178
93.7617
96.8646
100
100
91.1153
82.4149
74.0742
66.2509
59.0795
52.6671
47.093
42.4105
38.6507
35.8283
33.9477
33.0079
33.0076
33.9468
35.8268
38.6487
42.4081
47.0904
52.6644
59.0769
66.2486
74.0723
82.4136
91.1146
100
-300
-300
-300
-300
-300
-300
-300
-300
-300
-300
-300
-300
-300
-300
-300
-300
-300
-300
-300
-300
-300
-300
-300
-300
100
90.8064
82.0241
73.9733
66.8763
60.8794
56.0737
52.5082
50.1968
49.1209
49.2291
50.4342
52.6053
55.5564
59.0367
62.7445
66.4108
69.9649
73.4514
76.9457
80.513
84.1934
88.0009
91.9255
95.9389
100
100
91.115
82.4145
74.0735
66.25
59.0784
52.6658
47.0915
42.4088
38.6488
35.8262
33.9454
33.0054
33.0049
33.9438
35.8238
38.6455
42.4049
47.0872
52.6613
59.074
66.2461
74.0703
82.4122
91.1138
100
-300
-300
-300
-300
-300
-300
-300
-300
-300
-300
-300
-300
-300
-300
-300
-300
-300
-300
-300
-300
-300
-300
-300
-300
100
91.0296
82.3879
74.3582
67.1612
60.9568
55.8523
51.91
49.1523
47.5663
47.1047
47.6867
49.196
51.48
54.3538
57.6206
61.1165
64.7644
68.5557
72.5127
76.6602
81.0102
85.555
90.2671
95.1014
100
100
91.1149
82.4142
74.0731
66.2495
59.0777
52.6649
47.0905
42.4075
38.6473
35.8245
33.9433
33.003
33.0022
33.9408
35.8204
38.6418
42.401
47.0833
52.6575
59.0704
66.2429
74.0677
82.4104
91.1129
100
-300
-300
-300
-300
-300
-300
-300
-300
-300
-300
-300
-300
-300
-300
-300
-300
-300
-300
-300
-300
-300
-300
-300
-300
100
91.1495
82.5803
74.5467
67.2592
60.8799
55.5232
51.2593
48.1179
46.0929
45.1452
45.2055
46.1773
47.9408
50.3607
53.3022
56.6539
60.3488
64.3586
68.6768
73.3004
78.2173
83.3997
88.8014
94.3599
100
100
91.1148
82.414
74.0728
66.249
59.0771
52.6642
47.0895
42.4063
38.6458
35.8226
33.941
33.0002
32.9989
33.9369
35.816
38.6369
42.3957
47.0778
52.652
59.0653
66.2383
74.064
82.4077
91.1115
100
-300
-300
-300
-300
-300
-300
-300
-300
-300
-300
-300
-300
-300
-300
-300
-300
-300
-300
-300
-300
-300
-300
-300
-300
100
91.2073
82.6663
74.6097
67.2371
60.7078
55.1383
50.6032
47.1381
44.7438
43.3904
43.022
43.5615
44.9168
46.9885
49.6813
52.9153
56.6353
60.8074
65.4102
70.4224
75.8134
81.5377
87.5319
93.7166
100
100
91.1147
82.4138
74.0725
66.2486
59.0765
52.6634
47.0884
42.4049
38.6439
35.8202
33.9379
32.9964
32.9942
33.9314
35.8096
38.6298
42.3879
47.0696
52.6438
59.0575
66.2314
74.0583
82.4037
91.1094
100
-300
-300
-300
-300
-300
-300
-300
-300
-300
-300
-300
-300
-300
-300
-300
-300
-300
-300
-300
-300
-300
-300
-300
-300
100
91.2275
82.6871
74.5958
67.1435
60.4853
54.7373
49.9765
46.243
43.5439
41.8583
41.1427
41.3372
42.372
44.1737
46.6736
49.8131
53.5475
57.8434
62.6715
67.999
73.7816
79.9592
86.4534
93.1695
100
100
91.1146
82.4136
74.0722
66.2482
59.0758
52.6624
47.0871
42.403
38.6413
35.8168
33.9336
32.9909
32.9874
33.9232
35.8001
38.619
42.3762
47.0573
52.6314
59.0455
66.2207
74.0495
82.3974
91.1062
100
-300
-300
-300
-300
-300
-300
-300
-300
-300
-300
-300
-300
-300
-300
-300
-300
-300
-300
-300
-300
-300
-300
-300
-300
100
91.2253
82.6691
74.5374
67.0121
60.2439
54.3476
49.4016
45.4492
42.5029
40.5497
39.557
39.4789
40.2628
41.8547
44.2045
47.2691
51.0128
55.4041
60.4107
65.9922
72.0943
78.6452
85.5541
92.7128
100
100
91.1145
82.4134
74.0718
66.2476
59.0749
52.6611
47.0852
42.4003
38.6377
35.812
33.9273
32.9829
32.9774
33.9112
35.7859
38.6029
42.3585
47.0386
52.6124
59.0274
66.2043
74.036
82.3879
91.1012
100
-300
-300
-300
-300
-300
-300
-300
-300
-300
-300
-300
-300
-300
-300
-300
-300
-300
-300
-300
-300
-300
-300
-300
-300
100
91.2098
82.629
74.4551
66.8642
60.0033
53.9855
48.8898
44.7619
41.6188
39.4537
38.243
37.9519
38.5411
39.9707
42.2045
45.2106
48.9607
53.4264
58.5738
64.3578
70.7172
77.5709
84.8179
92.3386
100
100
91.1144
82.4131
74.0713
66.2467
59.0736
52.6592
47.0825
42.3966
38.6325
35.805
33.9181
32.9712
32.9629
33.8935
35.765
38.5791
42.3322
47.0107
52.5841
59
66.1796
74.0157
82.3733
91.0936
100
-300
-300
-300
-300
-300
-300
-300
-300
-300
-300
-300
-300
-300
-300
-300
-300
-300
-300
-300
-300
-300
-300
-300
-300
100
91.1867
82.5763
74.3609
66.7121
59.7738
53.6579
48.4432
44.1773
40.8802
38.5505
37.1712
36.7163
37.1562
38.4618
40.6069
43.5683
47.3236
51.8471
57.1048
63.0488
69.6124
76.7079
84.2258
92.0375
100
100
91.1142
82.4127
74.0705
66.2455
59.0719
52.6566
47.0787
42.3912
38.6252
35.7951
33.9051
32.9544
32.9419
33.8679
35.7347
38.5443
42.2936
46.9695
52.5421
58.9594
66.1428
73.9852
82.3515
91.0823
100
-300
-300
-300
-300
-300
-300
-300
-300
-300
-300
-300
-300
-300
-300
-300
-300
-300
-300
-300
-300
-300
-300
-300
-300
100
91.1584
82.5156
74.2601
66.5604
59.5581
53.3639
48.0565
43.6844
40.2699
37.8152
36.3084
35.73
36.0576
37.2701
39.3489
42.277
46.0369
50.6055
55.949
62.0176
68.7412
76.0266
83.7581
91.7995
100
100
91.1139
82.4121
74.0695
66.2439
59.0694
52.653
47.0735
42.3839
38.615
35.7813
33.8868
32.9308
32.9121
33.8315
35.6914
38.4943
42.2379
46.9097
52.4807
58.8996
66.0884
73.9401
82.3191
91.0653
100
-300
-300
-300
-300
-300
-300
-300
-300
-300
-300
-300
-300
-300
-300
-300
-300
-300
-300
-300
-300
-300
-300
-300
-300
100
91.1253
82.4474
74.1527
66.4076
59.3525
53.0969
47.7189
43.2674
39.7661
37.2195
35.6193
34.9505
35.1962
36.3409
38.3715
41.2761
45.0406
49.6444
55.054
61.2188
68.0658
75.4981
83.395
91.6147
100
100
91.1136
82.4113
74.0682
66.2418
59.0662
52.6481
47.0664
42.3738
38.601
35.7623
33.8616
32.8981
32.8708
33.7805
35.6304
38.4235
42.1585
46.824
52.3922
58.813
66.0091
73.8739
82.2715
91.0403
100
-300
-300
-300
-300
-300
-300
-300
-300
-300
-300
-300
-300
-300
-300
-300
-300
-300
-300
-300
-300
-300
-300
-300
-300
100
91.0862
82.3689
74.034
66.2474
59.1483
52.845
47.4152
42.907
39.3448
36.7341
35.0689
34.3373
34.5259
35.6235
37.6211
40.5103
44.2801
48.9115
54.372
60.6099
67.5509
75.0951
83.118
91.4737
100
100
91.1131
82.4103
74.0664
66.239
59.0619
52.6417
47.057
42.3604
38.5823
35.7367
33.8275
32.8536
32.8142
33.7104
35.546
38.3248
42.0471
46.7029
52.2662
58.6888
65.8947
73.7778
82.2019
91.0038
100
-300
-300
-300
-300
-300
-300
-300
-300
-300
-300
-300
-300
-300
-300
-300
-300
-300
-300
-300
-300
-300
-300
-300
-300
100
91.0379
82.2741
73.8956
66.0687
58.9319
52.5926
47.1269
42.5818
38.9808
36.3299
34.6238
33.8523
34.0047
35.0725
37.0497
39.9307
43.7068
48.3605
53.8598
60.1531
67.1647
74.7928
82.9103
91.368
100
100
91.1125
82.409
74.0642
66.2353
59.0563
52.6333
47.0448
42.3428
38.5577
35.7029
33.7821
32.7942
32.7382
33.6157
35.4311
38.1896
41.8931
46.5341
52.0892
58.5127
65.731
73.6394
82.1011
90.9506
100
-300
-300
-300
-300
-300
-300
-300
-300
-300
-300
-300
-300
-300
-300
-300
-300
-300
-300
-300
-300
-300
-300
-300
-300
100
90.9753
82.1533
73.7241
65.8554
58.6855
52.32
46.8327
42.2684
38.6488
35.9786
34.2525
33.4611
33.5951
34.6479
36.6157
39.4949
43.2788
47.951
53.4804
59.8154
66.8795
74.5697
82.7571
91.2899
100
100
91.1118
82.4073
74.0613
66.2308
59.0492
52.6226
47.0291
42.3203
38.5259
35.6592
33.7232
32.7165
32.6382
33.49
35.2775
38.0074
41.6837
46.3023
51.8434
58.2657
65.4991
73.4413
81.9557
90.8734
100
-300
-300
-300
-300
-300
-300
-300
-300
-300
-300
-300
-300
-300
-300
-300
-300
-300
-300
-300
-300
-300
-300
-300
-300
100
90.891
81.9926
73.5009
65.5862
58.3861
52.0037
46.5088
41.9425
38.3233
35.6535
33.9268
33.1334
33.2647
34.3155
36.2835
39.167
42.9605
47.649
53.2023
59.5687
66.6717
74.4075
82.6457
91.2333
100
100
91.1109
82.4053
74.0578
66.2251
59.0404
52.6094
47.0095
42.292
38.4859
35.6038
33.648
32.6168
32.5089
33.3265
35.076
37.7659
41.4034
45.9884
51.5066
57.9227
65.1728
73.1592
81.7464
90.7615
100
-300
-300
-300
-300
-300
-300
-300
-300
-300
-300
-300
-300
-300
-300
-300
-300
-300
-300
-300
-300
-300
-300
-300
-300
100
90.7737
81.7719
73.2003
65.2326
58.0051
51.6159
46.1287
41.5788
37.9795
35.3298
33.621
32.8425
32.9859
34.0467
36.0239
38.9173
42.7228
47.4268
52.9996
59.3902
66.5221
74.291
82.5659
91.1927
100
100
91.1098
82.4029
74.0536
66.2183
59.0298
52.5932
46.9856
42.2573
38.4365
35.535
33.5541
32.4914
32.3453
33.1179
34.8165
37.4518
41.0345
45.5698
51.0509
57.4513
64.7168
72.7583
81.4446
90.5984
100
-300
-300
-300
-300
-300
-300
-300
-300
-300
-300
-300
-300
-300
-300
-300
-300
-300
-300
-300
-300
-300
-300
-300
-300
100
90.6067
81.4619
72.7861
64.7571
57.5066
51.124
45.6635
41.1513
37.5938
34.985
33.3132
32.5664
32.7359
33.8181
35.8131
38.7221
42.5425
47.2619
52.8516
59.2615
66.415
74.2081
82.5094
91.164
100
100
91.1085
82.4002
74.0487
66.2103
59.0173
52.5742
46.9571
42.2157
38.377
35.4515
33.4395
32.3374
32.1426
32.8572
34.489
37.051
40.5576
45.0207
50.4427
56.8098
64.0831
72.1888
81.0066
90.3579
100
-300
-300
-300
-300
-300
-300
-300
-300
-300
-300
-300
-300
-300
-300
-300
-300
-300
-300
-300
-300
-300
-300
-300
-300
100
90.3634
81.0181
72.2072
64.1097
56.8463
50.4908
45.0821
40.6341
37.1438
34.5991
32.9846
32.2867
32.4967
33.6114
35.6326
38.5629
42.4014
47.137
52.7425
59.1682
66.3385
74.1494
82.4696
91.1439
100
100
91.1072
82.3971
74.0433
66.2013
59.003
52.5522
46.9241
42.167
38.3069
35.3526
33.3029
32.1524
31.8972
32.5387
34.0849
36.5502
39.9532
44.313
49.6432
55.9467
63.2071
71.3777
80.3637
89.9955
100
-300
-300
-300
-300
-300
-300
-300
-300
-300
-300
-300
-300
-300
-300
-300
-300
-300
-300
-300
-300
-300
-300
-300
-300
100
89.9991
80.3711
71.3897
63.2244
55.9703
49.6742
44.3525
40.0024
36.6098
34.1555
32.6204
31.9896
32.2544
33.413
35.4686
38.426
42.286
47.0393
52.66
59.0998
66.2835
74.1078
82.4416
91.1299
100
100
91.1058
82.3939
74.0374
66.1916
58.9873
52.5277
46.8868
42.1117
38.2266
35.2385
33.1439
31.9355
31.6073
32.1589
33.5976
35.9387
39.2041
43.4194
48.6108
54.8009
62.0042
70.218
79.4017
89.4289
100
-300
-300
-300
-300
-300
-300
-300
-300
-300
-300
-300
-300
-300
-300
-300
-300
-300
-300
-300
-300
-300
-300
-300
-300
100
89.4312
79.4065
70.2257
62.0152
54.8159
48.6305
43.4445
39.2352
35.9764
33.6421
32.2104
31.6655
31.9998
33.2133
35.3115
38.3016
42.1867
46.9594
52.5956
59.0483
66.2434
74.0781
82.422
91.1201
100
100
91.1044
82.3908
74.0316
66.1815
58.9708
52.5014
46.8462
42.0508
38.1372
35.1103
32.964
31.688
31.2735
31.7174
33.0251
35.2111
38.2987
42.3184
47.3068
53.3068
60.3692
68.5544
77.9249
88.4892
100
-300
-300
-300
-300
-300
-300
-300
-300
-300
-300
-300
-300
-300
-300
-300
-300
-300
-300
-300
-300
-300
-300
-300
-300
100
88.4906
77.9279
68.5592
60.3761
53.3162
47.3191
42.334
38.3181
35.2345
33.0527
31.7493
31.3095
31.7278
33.007
35.1556
38.1837
42.0972
46.8912
52.5435
59.0086
66.2136
74.0568
82.4082
91.1133
100
100
91.1033
82.3881
74.0263
66.172
58.9544
52.4746
46.8039
41.9861
38.041
34.9708
32.7662
31.4134
30.8998
31.2186
32.3713
34.3699
37.2359
41.0007
45.7061
51.4084
58.1885
66.176
75.5907
86.7802
100
-300
-300
-300
-300
-300
-300
-300
-300
-300
-300
-300
-300
-300
-300
-300
-300
-300
-300
-300
-300
-300
-300
-300
-300
100
86.7811
75.5925
66.1789
58.1927
51.4141
45.7136
41.0102
37.2477
34.3842
32.3882
31.238
30.9218
31.4377
32.7924
34.9983
38.0693
42.0143
46.8313
52.5002
58.9774
66.1915
74.0417
82.3987
91.1087
100
100
91.1028
82.3865
74.0225
66.1641
58.9397
52.4491
46.7621
41.9204
37.9414
34.8242
32.5558
31.1183
30.4944
30.6721
31.6478
33.428
36.0291
39.478
43.8123
49.0857
55.3818
62.8533
71.8365
83.2351
100
100
100
100
100
100
100
100
100
100
100
100
100
100
100
100
100
100
100
100
100
100
100
100
100
100
83.2356
71.8376
62.8551
55.3844
49.0892
43.8168
39.4837
36.0362
33.4365
31.6579
30.6837
30.5076
31.1329
32.5715
34.8407
37.9584
41.9374
46.7786
52.4645
58.9536
66.1759
74.0318
82.3928
91.106
100
100
91.1032
82.3868
74.0215
66.1598
58.9291
52.4279
46.7244
41.8581
37.8437
34.6768
32.3406
30.8124
30.0693
30.0932
30.8739
32.41
34.7097
37.7895
41.6732
46.3931
51.9915
58.5254
66.0588
74.5597
83.235
86.7801
88.4889
89.4285
89.9947
90.3567
90.5964
90.7582
90.868
90.9419
90.9902
91.0192
91.0328
91.0328
91.0192
90.9902
90.9419
90.868
90.7582
90.5964
90.3567
89.9947
89.4285
88.489
86.7801
83.2351
74.56
66.0595
58.5265
51.993
46.3951
41.6759
37.7928
34.7139
32.4151
30.8798
30.1001
30.0771
30.821
32.3499
34.6865
37.8537
41.8681
46.7341
52.437
58.9373
66.1667
74.027
82.3906
91.1051
100
100
91.1053
82.3903
74.0252
66.1615
58.9257
52.4149
46.6955
41.8047
37.7545
34.5369
32.1309
30.5084
29.6407
29.5029
30.0766
31.3516
33.3253
36.0006
39.383
43.476
48.2729
53.7396
59.7688
66.0588
71.8363
75.5904
77.9244
79.4009
80.3622
81.0042
81.4406
81.7399
81.9453
82.0845
82.1757
82.2307
82.2566
82.2566
82.2307
82.1757
82.0845
81.9453
81.7399
81.4406
81.0042
80.3622
79.4009
77.9244
75.5904
71.8364
66.059
59.7692
53.7403
48.2738
43.4772
39.3846
36.0026
33.3278
31.3546
30.0801
29.5069
29.6452
30.5134
32.1362
34.5426
37.7603
41.8105
46.7011
52.4202
58.9304
66.1655
74.0284
82.3925
91.1064
100
100
91.1099
82.3989
74.0363
66.1729
58.9341
52.4154
46.6818
41.7679
37.6829
34.4153
31.9395
30.2223
29.2286
28.9263
29.2887
30.2961
31.9343
34.1926
37.0585
40.5111
44.5091
48.971
53.7396
58.5253
62.8531
66.1756
68.5538
70.2169
71.3757
72.1854
72.7527
73.15
73.4266
73.6159
73.741
73.8167
73.8524
73.8524
73.8167
73.741
73.6159
73.4266
73.15
72.7527
72.1854
71.3757
70.2169
68.5538
66.1757
62.8532
58.5255
53.7398
48.9714
44.5096
40.5118
37.0594
34.1937
31.9357
30.2977
29.2907
28.9285
29.2312
30.2251
31.9426
34.4185
37.6862
41.7712
46.685
52.4185
58.9367
66.1752
74.0381
82.4001
91.1105
100
100
91.1183
82.415
74.0586
66.1989
58.9603
52.437
46.6919
41.7577
37.6405
34.3254
31.7824
29.9729
28.856
28.3922
28.5467
29.2905
30.5989
32.449
34.8144
37.6579
40.921
44.5091
48.2729
51.9914
55.3816
58.188
60.3683
62.0028
63.2047
64.079
64.71
65.1616
65.481
65.7024
65.8497
65.9395
65.982
65.982
65.9395
65.8497
65.7024
65.481
65.1616
64.71
64.079
63.2047
62.0028
60.3684
58.1881
55.3816
51.9914
48.273
44.5093
40.9213
37.6583
34.8149
32.4496
30.5997
29.2914
28.5478
28.3935
28.8574
29.9745
31.7841
34.3272
37.6424
41.7595
46.6937
52.4387
58.9618
66.2002
74.0596
82.4157
91.1186
100
100
91.1322
82.442
74.097
66.2462
59.0126
52.4892
46.7372
41.7869
37.642
34.2838
31.6785
29.7825
28.549
27.9319
27.8889
28.3826
29.3794
30.8468
32.7492
35.0406
37.6579
40.5111
43.4759
46.3929
49.0854
51.4078
53.3059
54.7993
55.944
56.8052
57.4436
57.9101
58.2455
58.4806
58.6386
58.7355
58.7815
58.7815
58.7355
58.6386
58.4806
58.2455
57.9101
57.4436
56.8052
55.944
54.7993
53.3059
51.4079
49.0855
46.393
43.476
40.5112
37.6581
35.0408
32.7494
30.8472
29.3798
28.3831
27.8895
27.9326
28.5498
29.7834
31.6794
34.2848
37.643
41.788
46.7382
52.4902
59.0135
66.2469
74.0976
82.4424
91.1324
100
100
91.154
82.4846
74.1586
66.3238
59.1021
52.5851
46.8324
41.8722
37.7056
34.3111
31.6507
29.6766
28.3367
27.5789
27.3544
27.6187
28.3312
29.4526
30.9415
32.7491
34.8144
37.0585
39.3829
41.6731
43.812
45.7056
47.3058
48.6091
49.6403
50.4378
51.0428
51.4934
51.8222
52.0556
52.2138
52.3114
52.358
52.358
52.3114
52.2138
52.0556
51.8222
51.4934
51.0428
50.4378
49.6403
48.6091
47.3058
45.7056
43.812
41.6731
39.383
37.0586
34.8145
32.7493
30.9416
29.4528
28.3314
27.619
27.3547
27.5793
28.3371
29.6771
31.6512
34.3116
37.7062
41.8728
46.8329
52.5857
59.1026
66.3242
74.1589
82.4848
91.1541
100
100
91.1866
82.5487
74.252
66.4432
59.2429
52.7413
46.9963
42.0345
37.8546
34.4322
31.7262
29.6849
28.2515
27.369
26.983
27.0436
27.5046
28.3224
29.4526
30.8468
32.449
34.1925
36.0005
37.7893
39.4777
41.0001
42.3174
43.4177
44.31
45.0158
45.5617
45.9752
46.2811
46.5007