# vtk DataFile Version 2.0
LBE two cylinders
ASCII
DATASET STRUCTURED_POINTS
DIMENSIONS 76 76 1
ASPECT_RATIO 1 1 1
ORIGIN 0 0 0
POINT_DATA 5776
SCALARS temp double 1
LOOKUP_TABLE default
100
100
100
100
100
100
100
100
100
100
100
100
100
100
100
100
100
100
100
100
100
100
100
100
100
100
-300
-300
-300
-300
-300
-300
-300
-300
-300
-300
-300
-300
-300
-300
100
100
100
100
100
100
100
100
100
100
100
100
100
100
100
100
100
100
100
100
100
100
100
100
100
100
-300
-300
-300
-300
-300
-300
-300
-300
-300
-300
100
98.9275
97.8786
96.8755
95.9378
95.0822
94.3211
93.6632
93.1138
92.6752
92.3475
92.13
92.0217
92.0217
92.13
92.3475
92.6752
93.1138
93.6632
94.3211
95.0822
95.9378
96.8755
97.8786
98.9275
100
-300
-300
-300
-300
-300
-300
-300
-300
-300
-300
-300
-300
-300
-300
100
98.93
97.8834
96.8824
95.9467
95.0926
94.3326
93.6755
93.1264
92.6877
92.3597
92.1415
92.0322
92.0311
92.1383
92.3546
92.6811
93.1187
93.6671
94.3241
95.0844
95.9395
96.8766
97.8793
98.9279
100
-300
-300
-300
-300
-300
-300
-300
-300
-300
-300
100
97.8778
95.8021
93.8171
91.9617
90.2685
88.7624
87.4606
86.3734
85.5054
84.8571
84.4267
84.2123
84.2123
84.4267
84.8571
85.5054
86.3734
87.4606
88.7624
90.2685
91.9617
93.8171
95.8021
97.8778
100
-300
-300
-300
-300
-300
-300
-300
-300
-300
-300
-300
-300
-300
-300
100
97.8833
95.813
93.8328
91.9817
90.2919
88.7884
87.4883
86.4019
85.5337
84.8845
84.4526
84.236
84.2336
84.4454
84.8731
85.5188
86.3844
87.4693
88.7691
90.2735
91.9653
93.8195
95.8036
97.8785
100
-300
-300
-300
-300
-300
-300
-300
-300
-300
-300
100
96.872
93.8126
90.8868
88.1521
85.6564
83.4366
81.5179
79.9155
78.636
77.6804
77.0462
76.7301
76.7301
77.0462
77.6804
78.636
79.9155
81.5179
83.4366
85.6564
88.1521
90.8868
93.8126
96.872
100
-300
-300
-300
-300
-300
-300
-300
-300
-300
-300
-300
-300
-300
-300
100
96.8819
93.8321
90.9151
88.188
85.6987
83.4835
81.5678
79.9667
78.6871
77.7298
77.0927
76.7729
76.7685
77.0798
77.7092
78.6601
79.9351
81.5334
83.4486
85.6655
88.1586
90.8912
93.8153
96.8733
100
-300
-300
-300
-300
-300
-300
-300
-300
-300
-300
100
95.9287
91.9467
88.1386
84.5793
81.331
78.4417
75.9445
73.8589
72.1937
70.9499
70.1244
69.713
69.713
70.1244
70.9499
72.1937
73.8589
75.9445
78.4417
81.331
84.5793
88.1386
91.9467
95.9287
100
-300
-300
-300
-300
-300
-300
-300
-300
-300
-300
-300
-300
-300
-300
100
95.9454
91.9795
88.186
84.6395
81.4018
78.5204
76.0282
73.9448
72.2793
71.0327
70.2025
69.7848
69.7774
70.1808
70.9981
72.2339
73.8916
75.9705
78.4618
81.346
84.59
88.1459
91.9513
95.9308
100
-300
-300
-300
-300
-300
-300
-300
-300
-300
-300
100
95.0627
90.2338
85.6156
81.2993
77.3602
73.8563
70.8279
68.2988
66.2794
64.7711
63.77
63.2711
63.2711
63.77
64.7711
66.2794
68.2988
70.8279
73.8563
77.3602
81.2993
85.6156
90.2338
95.0627
100
-300
-300
-300
-300
-300
-300
-300
-300
-300
-300
-300
-300
-300
-300
100
95.0897
90.2868
85.6924
81.3968
77.4747
73.9837
70.9635
68.438
66.4181
64.9054
63.8966
63.3875
63.3755
63.8614
64.8491
66.3445
68.3516
70.8698
73.8886
77.3842
81.3165
85.6274
90.241
95.0661
100
-300
-300
-300
-300
-300
-300
-300
-300
-300
-300
100
94.2844
88.6944
83.3483
78.3516
73.7916
69.7356
66.2299
63.3021
60.9645
59.2185
58.0596
57.4821
57.4821
58.0596
59.2185
60.9645
63.3021
66.2299
69.7356
73.7916
78.3516
83.3483
88.6944
94.2844
100
-300
-300
-300
-300
-300
-300
-300
-300
-300
-300
-300
-300
-300
-300
100
94.3272
88.7782
83.4698
78.5059
73.9729
69.9371
66.4444
63.5226
61.1841
59.4311
58.26
57.6663
57.6473
58.2041
59.3418
61.0672
63.3854
66.2957
69.7861
73.8292
78.3785
83.3666
88.7056
94.2897
100
-300
-300
-300
-300
-300
-300
-300
-300
-300
-300
100
93.5998
87.3401
81.3537
75.7584
70.6522
66.1103
62.1847
58.9063
56.2887
54.3336
53.036
52.3893
52.3893
53.036
54.3336
56.2887
58.9063
62.1847
66.1103
70.6522
75.7584
81.3537
87.3401
93.5998
100
-300
-300
-300
-300
-300
-300
-300
-300
-300
-300
-300
-300
-300
-300
100
93.666
87.47
81.542
75.9977
70.9335
66.423
62.5178
59.2486
56.6297
54.6637
53.3472
52.6753
52.6456
53.26
54.5247
56.4476
59.035
62.2862
66.188
70.7098
75.7994
81.3813
87.357
93.6078
100
-300
-300
-300
-300
-300
-300
-300
-300
-300
-300
100
93.0101
86.1737
79.6357
73.5249
67.9483
62.988
58.7008
55.1204
52.2617
50.1265
48.7094
48.0032
48.0032
48.7094
50.1265
52.2617
55.1204
58.7008
62.988
67.9483
73.5249
79.6357
86.1737
93.0101
100
-300
-300
-300
-300
-300
-300
-300
-300
-300
-300
-300
-300
-300
-300
100
93.111
86.3714
79.9224
73.8894
68.3768
63.4645
59.2085
55.6423
52.7816
50.6299
49.1838
48.4389
48.3935
49.0503
50.4169
52.5028
55.3153
58.854
63.1049
68.0346
73.5861
79.6768
86.1987
93.0218
100
-300
-300
-300
-300
-300
-300
-300
-300
-300
-300
100
92.5128
85.1901
78.187
71.6416
65.6683
60.3552
55.7631
51.928
48.866
46.579
45.0611
44.3047
44.3047
45.0611
46.579
48.866
51.928
55.7631
60.3552
65.6683
71.6416
78.187
85.1901
92.5128
100
-300
-300
-300
-300
-300
-300
-300
-300
-300
-300
-300
-300
-300
-300
100
92.6637
85.4858
78.6159
72.1869
66.3094
61.0685
56.5232
52.7097
49.6449
47.3331
45.7717
44.9571
44.8887
45.5708
47.0125
49.2253
52.2177
55.9901
60.5278
65.7951
71.731
78.2467
85.2262
92.5298
100
-300
-300
-300
-300
-300
-300
-300
-300
-300
-300
100
92.1023
84.378
76.991
70.0866
63.7859
58.1815
53.3377
49.2924
46.0626
43.6503
42.0492
41.2513
41.2513
42.0492
43.6503
46.0626
49.2924
53.3377
58.1815
63.7859
70.0866
76.991
84.378
92.1023
100
-300
-300
-300
-300
-300
-300
-300
-300
-300
-300
-300
-300
-300
-300
100
92.3238
84.8124
77.6211
70.8882
64.7286
59.2307
54.4562
50.4428
47.2091
44.7602
43.0949
42.2109
42.1096
42.7973
44.2856
46.588
49.7149
53.6676
58.4311
63.9682
70.2144
77.0756
84.4289
92.126
100
-300
-300
-300
-300
-300
-300
-300
-300
-300
-300
100
91.7704
83.7215
76.024
68.8296
62.2641
56.4243
51.377
47.1618
43.7963
41.2827
39.6144
38.783
38.783
39.6144
41.2827
43.7963
47.1618
51.377
56.4243
62.2641
68.8296
76.024
83.7215
91.7704
100
-300
-300
-300
-300
-300
-300
-300
-300
-300
-300
-300
-300
-300
-300
100
92.0902
84.3485
76.9339
69.9874
63.6263
57.9408
52.9944
48.8258
45.4549
42.8883
41.1266
40.17
40.0223
40.6932
42.1971
44.5506
47.7663
51.847
56.778
62.5208
69.008
76.1412
83.7914
91.8027
100
-300
-300
-300
-300
-300
-300
-300
-300
-300
-300
100
91.5076
83.2018
75.2585
67.8344
61.0594
55.0332
49.8248
45.4751
42.0023
39.4084
37.6869
36.829
36.829
37.6869
39.4084
42.0023
45.4751
49.8248
55.0332
61.0594
67.8344
75.2585
83.2018
91.5076
100
-300
-300
-300
-300
-300
-300
-300
-300
-300
-300
-300
-300
-300
-300
100
91.9611
84.0912
76.5496
69.478
62.9939
57.188
52.124
47.8414
44.3611
41.6918
39.8367
38.7993
38.5875
39.2152
40.7011
43.0653
46.3239
50.4815
55.5241
61.4127
68.0776
75.4165
83.2949
91.5504
100
-300
-300
-300
-300
-300
-300
-300
-300
-300
-300
100
91.3039
82.7988
74.6651
67.0629
60.1254
53.9547
48.6214
44.1674
40.6114
37.9553
36.1926
35.3141
35.3141
36.1926
37.9553
40.6114
44.1674
48.6214
53.9547
60.1254
67.0629
74.6651
82.7988
91.3039
100
-300
-300
-300
-300
-300
-300
-300
-300
-300
-300
-300
-300
-300
-300
100
91.936
84.0388
76.4657
69.3562
62.8262
56.9649
51.8349
47.476
43.9101
41.1483
39.1973
38.0655
37.7664
38.3197
39.7499
42.0822
45.3365
49.5205
54.6216
60.6005
67.3858
74.8717
82.9189
91.3584
100
-300
-300
-300
-300
-300
-300
-300
-300
-300
-300
100
91.1492
82.4928
74.2144
66.477
59.4161
53.1357
47.7076
43.1745
39.5552
36.852
35.0579
34.1638
34.1638
35.0579
36.852
39.5552
43.1745
47.7076
53.1357
59.4161
66.477
74.2144
82.4928
91.1492
100
-300
-300
-300
-300
-300
-300
-300
-300
-300
-300
-300
-300
-300
-300
100
92.0153
84.1922
76.6832
69.6232
63.1239
57.271
52.125
47.7247
44.0929
41.2434
39.1881
37.9417
37.5255
37.9671
39.2989
41.5526
44.7538
48.9136
54.0218
60.0395
66.8938
74.476
82.6417
91.2157
100
-300
-300
-300
-300
-300
-300
-300
-300
-300
-300
100
91.0341
82.2652
73.8792
66.0412
58.8886
52.5266
47.0279
42.4359
38.7697
36.0314
34.214
33.3083
33.3083
34.214
36.0314
38.7697
42.4359
47.0279
52.5266
58.8886
66.0412
73.8792
82.2652
91.0341
100
-300
-300
-300
-300
-300
-300
-300
-300
-300
-300
-300
-300
-300
-300
100
92.2006
84.555
77.2074
70.2857
63.8947
58.1147
53.002
48.5932
44.9115
41.9741
39.799
38.41
37.8389
38.1242
39.3083
41.4321
44.5279
48.6119
53.6769
59.685
66.5625
74.1976
82.441
91.1107
100
-300
-300
-300
-300
-300
-300
-300
-300
-300
-300
100
90.9503
82.0994
73.6349
65.7237
58.5042
52.0827
46.5327
41.8978
38.1974
35.4335
33.5991
32.685
32.685
33.5991
35.4335
38.1974
41.8978
46.5327
52.0827
58.5042
65.7237
73.6349
82.0994
90.9503
100
-300
-300
-300
-300
-300
-300
-300
-300
-300
-300
-300
-300
-300
-300
100
92.4952
85.1331
78.0475
71.3558
65.1536
59.5131
54.4841
50.0992
46.3808
43.3497
41.0319
39.4631
38.6895
38.7645
39.7439
41.6801
44.6141
48.5685
53.54
59.4924
66.3518
74.0036
82.2933
91.0311
100
-300
-300
-300
-300
-300
-300
-300
-300
-300
-300
100
90.8904
81.981
73.4606
65.497
58.2298
51.7659
46.1792
41.5137
37.7888
35.0067
33.1602
32.24
32.24
33.1602
35.0067
37.7888
41.5137
46.1792
51.7659
58.2298
65.497
73.4606
81.981
90.8904
100
-300
-300
-300
-300
-300
-300
-300
-300
-300
-300
-300
-300
-300
-300
100
92.9026
85.9341
79.2149
72.8495
66.9212
61.4911
56.5995
52.2721
48.5285
45.3925
42.9001
41.1032
40.0678
39.8673
40.5756
42.259
44.9694
48.7372
53.5638
59.4158
66.2198
73.8588
82.1731
90.9633
100
-300
-300
-300
-300
-300
-300
-300
-300
-300
-300
100
90.8486
81.8982
73.3386
65.3385
58.0379
51.5443
45.932
41.245
37.503
34.7082
32.8532
31.9288
31.9288
32.8532
34.7082
37.503
41.245
45.932
51.5443
58.0379
65.3385
73.3386
81.8982
90.8486
100
-300
-300
-300
-300
-300
-300
-300
-300
-300
-300
-300
-300
-300
-300
100
93.4261
86.9651
80.7213
74.7837
69.2206
64.0784
59.3842
55.1521
51.3951
48.1376
45.4276
43.3399
41.9685
41.4143
41.7739
43.1312
45.5506
49.0708
53.6993
59.4064
66.1203
73.7234
82.0504
90.8914
100
-300
-300
-300
-300
-300
-300
-300
-300
-300
-300
100
90.8199
81.8414
73.255
65.2298
57.9063
51.3924
45.7625
41.0609
37.3072
34.5035
32.6428
31.7155
31.7155
32.6428
34.5035
37.3072
41.0609
45.7625
51.3924
57.9063
65.2298
73.255
81.8414
90.8199
100
-300
-300
-300
-300
-300
-300
-300
-300
-300
-300
-300
-300
-300
-300
100
94.0679
88.2306
82.575
77.1722
72.073
67.306
62.8793
58.7892
55.0338
51.6329
48.6478
46.187
44.3862
43.384
43.3059
44.2556
46.3105
49.5183
53.8926
59.4092
66
73.5491
81.8879
90.7945
100
-300
-300
-300
-300
-300
-300
-300
-300
-300
-300
100
90.8006
81.8033
73.1988
65.1568
57.8179
51.2903
45.6486
40.9372
37.1756
34.3661
32.5015
31.5722
31.5722
32.5015
34.3661
37.1756
40.9372
45.6486
51.2903
57.8179
65.1568
73.1988
81.8033
90.8006
100
-300
-300
-300
-300
-300
-300
-300
-300
-300
-300
-300
-300
-300
-300
100
94.827
89.73
84.7771
80.0209
75.4929
71.2005
67.1279
63.243
59.5147
55.944
52.6033
49.6576
47.3079
45.745
45.1286
45.5824
47.1954
50.0225
54.0835
59.3609
65.7943
73.2745
81.6349
90.6433
100
-300
-300
-300
-300
-300
-300
-300
-300
-300
-300
100
90.7879
81.7782
73.1618
65.1087
57.7598
51.2231
45.5736
40.8557
37.0889
34.2756
32.4084
31.4779
31.4779
32.4084
34.2756
37.0889
40.8557
45.5736
51.2231
57.7597
65.1087
73.1618
81.7781
90.7879
100
-300
-300
-300
-300
-300
-300
-300
-300
-300
-300
-300
-300
-300
-300
100
95.6984
91.4542
87.317
83.3213
79.4797
75.7775
72.1697
68.5835
64.9333
61.1656
57.3479
53.7561
50.7021
48.4461
47.1824
47.0495
48.1423
50.5188
54.2037
59.1875
65.4229
72.8172
81.218
90.3918
100
-300
-300
-300
-300
-300
-300
-300
-300
-300
-300
100
90.7797
81.7619
73.138
65.0777
57.7222
51.1797
45.5253
40.8031
37.033
34.2172
32.3483
31.417
31.417
32.3483
34.2171
37.033
40.8031
45.5252
51.1797
57.7222
65.0777
73.138
81.7619
90.7797
100
-300
-300
-300
-300
-300
-300
-300
-300
-300
-300
-300
-300
-300
-300
100
96.6715
93.3831
90.1677
87.044
84.0091
81.0298
78.0323
74.8922
71.4311
67.458
62.9497
58.4621
54.5002
51.4025
49.383
48.5789
49.0786
50.9366
54.1787
58.8048
64.7869
72.0639
80.5234
89.9603
100
-300
-300
-300
-300
-300
-300
-300
-300
-300
-300
100
90.7745
81.7517
73.1229
65.058
57.6984
51.1523
45.4946
40.7699
36.9976
34.1802
32.3103
31.3784
31.3784
32.3103
34.1802
36.9976
40.7698
45.4946
51.1522
57.6984
65.058
73.1228
81.7517
90.7745
100
-300
-300
-300
-300
-300
-300
-300
-300
-300
-300
-300
-300
-300
-300
100
97.7295
95.4837
93.2818
91.1314
89.0211
86.9099
84.7096
82.2518
79.2325
75.1504
69.4839
63.688
58.5638
54.4795
51.6161
50.0765
49.9254
51.2038
53.934
58.1238
63.7693
70.8586
79.3638
89.1913
100
-300
-300
-300
-300
-300
-300
-300
-300
-300
-300
100
90.7713
81.7453
73.1135
65.0458
57.6836
51.1353
45.4756
40.7492
36.9756
34.1572
32.2867
31.3545
31.3545
32.2866
34.1572
36.9756
40.7491
45.4755
51.1352
57.6836
65.0458
73.1134
81.7453
90.7713
100
-300
-300
-300
-300
-300
-300
-300
-300
-300
-300
-300
-300
-300
-300
100
98.8486
97.7089
96.5893
95.4917
94.4064
93.3034
92.1154
90.6924
88.6751
85.0916
76.9398
69.1676
62.6325
57.4772
53.7373
51.4385
50.6051
51.2567
53.4066
57.0646
62.2471
68.9973
77.4228
87.7255
100
-300
-300
-300
-300
-300
-300
-300
-300
-300
-300
100
90.7693
81.7414
73.1078
65.0384
57.6747
51.1249
45.464
40.7366
36.9623
34.1432
32.2723
31.3399
31.3399
32.2722
34.1431
36.9621
40.7365
45.4639
51.1247
57.6745
65.0383
73.1076
81.7413
90.7693
100
-300
-300
-300
-300
-300
-300
-300
-300
-300
-300
-300
-300
-300
-300
100
100
100
100
100
100
100
100
100
100
100
84.6171
74.2035
66.2752
60.1401
55.5906
52.5665
51.0542
51.0529
52.5625
55.5841
60.1313
66.2647
74.1923
84.608
100
100
100
100
100
100
100
100
100
100
100
100
90.7681
81.7391
73.1044
65.034
57.6693
51.1187
45.4571
40.7291
36.9543
34.1349
32.2636
31.3311
31.3311
32.2635
34.1347
36.954
40.7288
45.4568
51.1184
57.669
65.0337
73.1041
81.739
90.7681
100
-300
-300
-300
-300
-300
-300
-300
-300
-300
-300
-300
-300
-300
-300
-300
-300
-300
-300
-300
-300
-300
-300
-300
-300
100
87.726
77.4219
68.9935
62.2397
57.0536
53.392
51.2387
50.584
51.4147
53.7112
57.4493
62.6036
69.1387
76.9125
85.0679
88.6533
90.6721
92.0968
93.2868
94.392
95.4799
96.5802
97.7027
98.8455
100
100
90.7675
81.7378
73.1024
65.0314
57.6661
51.115
45.453
40.7246
36.9495
34.1299
32.2585
31.3259
31.3259
32.2583
34.1296
36.9491
40.7242
45.4525
51.1145
57.6656
65.0309
73.1019
81.7375
90.7673
100
-300
-300
-300
-300
-300
-300
-300
-300
-300
-300
-300
-300
-300
-300
-300
-300
-300
-300
-300
-300
-300
-300
-300
-300
100
89.1858
79.3522
70.8404
63.7446
58.0929
53.8974
51.1621
49.8794
50.0268
51.5636
54.425
58.5084
63.6327
69.43
75.099
79.1839
82.2064
84.6679
86.8726
88.9888
91.1047
93.2613
95.4698
97.7224
100
100
90.7671
81.737
73.1012
65.0299
57.6643
51.1129
45.4507
40.7221
36.9467
34.127
32.2555
31.3228
31.3227
32.2551
34.1264
36.946
40.7212
45.4497
51.1119
57.6633
65.029
73.1005
81.7364
90.7668
100
-300
-300
-300
-300
-300
-300
-300
-300
-300
-300
-300
-300
-300
-300
-300
-300
-300
-300
-300
-300
-300
-300
-300
-300
100
89.9482
80.4991
72.0277
64.7395
58.7469
54.1115
50.8613
48.9965
48.4913
49.2913
51.308
54.4045
58.3666
62.8557
67.3671
71.3445
74.8109
77.9577
80.9629
83.9512
86.9962
90.1309
93.3582
96.6589
100
100
90.7668
81.7365
73.1005
65.029
57.6633
51.1117
45.4493
40.7205
36.9451
34.1252
32.2536
31.3208
31.3206
32.253
34.1242
36.9438
40.719
45.4475
51.1099
57.6615
65.0274
73.0992
81.7356
90.7664
100
-300
-300
-300
-300
-300
-300
-300
-300
-300
-300
-300
-300
-300
-300
-300
-300
-300
-300
-300
-300
-300
-300
-300
-300
100
90.3706
81.1761
72.7552
65.3422
59.0897
54.0908
50.3928
48.0054
46.904
47.0305
48.29
50.5441
53.5983
57.1926
61.0149
64.7892
68.4482
72.0453
75.666
79.3831
83.2416
87.2557
91.4125
95.6773
100
100
90.7667
81.7363
73.1002
65.0285
57.6626
51.1109
45.4484
40.7195
36.944
34.124
32.2522
31.3193
31.3189
32.2512
34.1223
36.9417
40.7169
45.4454
51.1078
57.6596
65.0257
73.0979
81.7346
90.7659
100
-300
-300
-300
-300
-300
-300
-300
-300
-300
-300
-300
-300
-300
-300
-300
-300
-300
-300
-300
-300
-300
-300
-300
-300
100
90.6087
81.5665
73.1738
65.6635
59.2028
53.9012
49.8193
46.975
45.3484
44.8845
45.4944
47.0542
49.4043
52.3538
55.7016
59.283
63.0253
66.9276
71.0211
75.3375
79.8926
84.6784
89.663
94.7931
100
100
90.7666
81.7361
73.0999
65.0282
57.6622
51.1104
45.4478
40.7188
36.9431
34.1229
32.251
31.3178
31.3172
32.2492
34.1201
36.9393
40.7142
45.4427
51.1051
57.657
65.0235
73.096
81.7333
90.7652
100
-300
-300
-300
-300
-300
-300
-300
-300
-300
-300
-300
-300
-300
-300
-300
-300
-300
-300
-300
-300
-300
-300
-300
-300
100
90.7399
81.7799
73.3903
65.7938
59.16
53.6055
49.1985
45.9638
43.8876
42.9222
42.9902
43.9877
45.7891
48.2558
51.2522
54.6697
58.4471
62.5646
67.024
71.8289
76.9706
82.4199
88.1253
94.0146
100
100
90.7666
81.736
73.0998
65.028
57.6619
51.11
45.4473
40.7181
36.9422
34.1218
32.2495
31.316
31.315
32.2466
34.117
36.9358
40.7104
45.4387
51.1011
57.6532
65.02
73.0932
81.7313
90.7641
100
-300
-300
-300
-300
-300
-300
-300
-300
-300
-300
-300
-300
-300
-300
-300
-300
-300
-300
-300
-300
-300
-300
-300
-300
100
90.807
81.8836
73.478
65.8019
59.0217
53.2561
48.5776
45.016
42.564
41.1827
40.8076
41.3546
42.727
44.8238
47.5511
50.8342
54.6252
58.8995
63.6442
68.8446
74.4731
80.4824
86.8029
93.3441
100
100
90.7665
81.7359
73.0996
65.0277
57.6616
51.1096
45.4466
40.7172
36.941
34.1202
32.2475
31.3134
31.3118
32.2426
34.1123
36.9305
40.7046
45.4325
51.0948
57.6471
65.0146
73.0887
81.7281
90.7625
100
-300
-300
-300
-300
-300
-300
-300
-300
-300
-300
-300
-300
-300
-300
-300
-300
-300
-300
-300
-300
-300
-300
-300
-300
100
90.8354
81.9202
73.487
65.7373
58.8332
52.8927
47.9905
44.1603
41.4007
39.6812
38.9497
39.1395
40.1765
41.9873
44.506
47.6807
51.4756
55.8669
60.8348
66.353
72.3801
78.854
85.689
92.7787
100
100
90.7665
81.7358
73.0994
65.0275
57.6612
51.109
45.4458
40.716
36.9393
34.1179
32.2445
31.3095
31.3068
32.2366
34.1052
36.9223
40.6955
45.4228
51.0849
57.6376
65.006
73.0816
81.7231
90.7598
100
-300
-300
-300
-300
-300
-300
-300
-300
-300
-300
-300
-300
-300
-300
-300
-300
-300
-300
-300
-300
-300
-300
-300
-300
100
90.8406
81.917
73.4503
65.634
58.6258
52.5422
47.4586
43.4117
40.4051
38.4157
37.4019
37.3113
38.0876
39.6772
42.0341
45.1228
48.9174
53.3971
58.5393
64.3106
70.6595
77.512
84.7695
92.3114
100
100
90.7664
81.7357
73.0992
65.0271
57.6606
51.1081
45.4445
40.7143
36.9369
34.1145
32.2399
31.3036
31.2994
32.2275
34.0943
36.9097
40.6815
45.4078
51.0696
57.6227
64.9925
73.0705
81.7151
90.7557
100
-300
-300
-300
-300
-300
-300
-300
-300
-300
-300
-300
-300
-300
-300
-300
-300
-300
-300
-300
-300
-300
-300
-300
-300
100
90.8322
81.8909
73.3889
65.5138
58.4191
52.22
46.9918
42.7734
39.5722
37.3712
36.1376
35.8299
36.4053
37.8249
40.0572
43.0787
46.8715
51.4186
56.6962
62.6667
69.2715
76.4275
84.0254
91.933
100
100
90.7664
81.7355
73.0989
65.0266
57.6598
51.1069
45.4428
40.7117
36.9332
34.1095
32.2332
31.2949
31.2883
32.2137
34.0778
36.8906
40.6601
45.3849
51.0461
57.5998
64.9717
73.0532
81.7027
90.7492
100
-300
-300
-300
-300
-300
-300
-300
-300
-300
-300
-300
-300
-300
-300
-300
-300
-300
-300
-300
-300
-300
-300
-300
-300
100
90.8157
81.8516
73.3148
65.3885
58.2232
51.9322
46.5909
42.2394
38.8881
36.5247
35.123
34.6499
35.0727
36.3634
38.501
41.4709
45.2619
49.8602
55.2422
61.3675
68.1728
75.5677
83.4349
91.6324
100
100
90.7662
81.7352
73.0984
65.0258
57.6587
51.1052
45.4402
40.708
36.928
34.1023
32.2235
31.2821
31.2719
32.1934
34.0534
36.8622
40.6281
45.3503
51.0104
57.565
64.9399
73.0268
81.6837
90.7393
100
-300
-300
-300
-300
-300
-300
-300
-300
-300
-300
-300
-300
-300
-300
-300
-300
-300
-300
-300
-300
-300
-300
-300
-300
100
90.7938
81.8038
73.2334
65.2628
58.0401
51.6773
46.2495
41.7972
38.333
35.8479
34.3206
33.7242
34.0335
35.2282
37.2952
40.2268
44.0166
48.6537
54.1154
60.3595
67.3192
74.8991
82.9753
91.3984
100
100
90.7661
81.7349
73.0978
65.0248
57.6571
51.1027
45.4366
40.7027
36.9205
34.0919
32.2095
31.2636
31.2483
32.1639
34.0177
36.8204
40.5809
45.2991
50.9573
57.5128
64.892
72.9868
81.6549
90.7242
100
-300
-300
-300
-300
-300
-300
-300
-300
-300
-300
-300
-300
-300
-300
-300
-300
-300
-300
-300
-300
-300
-300
-300
-300
100
90.767
81.748
73.1447
65.1352
57.8661
51.4482
45.9558
41.4297
37.8834
35.3103
33.6922
33.0068
33.2339
34.3593
36.3753
39.2793
43.069
47.7358
53.2576
59.5916
66.6684
74.3889
82.6243
91.2196
100
100
90.7659
81.7344
73.097
65.0234
57.6549
51.0994
45.4316
40.6954
36.9101
34.0775
32.1898
31.2376
31.2147
32.1219
33.9665
36.7601
40.5124
45.2242
50.8792
57.4357
64.8209
72.9271
81.6117
90.7015
100
-300
-300
-300
-300
-300
-300
-300
-300
-300
-300
-300
-300
-300
-300
-300
-300
-300
-300
-300
-300
-300
-300
-300
-300
100
90.7339
81.6816
73.0443
64.9994
57.6924
51.2329
45.6943
41.117
37.5144
34.881
33.2007
32.4541
32.6246
33.7021
35.6831
38.5687
42.3595
47.049
52.6159
59.017
66.1812
74.0068
82.3614
91.0856
100
100
90.7656
81.7338
73.0958
65.0215
57.6519
51.0948
45.4248
40.6855
36.8959
34.0576
32.1628
31.2016
31.168
32.063
33.8945
36.6747
40.4146
45.1166
50.7661
57.3232
64.7165
72.8389
81.5477
90.6677
100
-300
-300
-300
-300
-300
-300
-300
-300
-300
-300
-300
-300
-300
-300
-300
-300
-300
-300
-300
-300
-300
-300
-300
-300
100
90.6915
81.5986
72.9236
64.8443
57.5056
51.0157
45.4466
40.8371
37.2
34.5298
32.8111
32.0263
32.1612
33.2084
35.1675
38.0423
41.8359
46.5433
52.144
58.5946
65.8232
73.726
82.1682
90.9871
100
100
90.7652
81.7329
73.0943
65.0191
57.648
51.0889
45.4158
40.6722
36.8769
34.031
32.1262
31.1527
31.1044
31.9822
33.7949
36.5557
40.2773
44.9643
50.6046
57.1612
64.5648
72.7099
81.4533
90.6178
100
-300
-300
-300
-300
-300
-300
-300
-300
-300
-300
-300
-300
-300
-300
-300
-300
-300
-300
-300
-300
-300
-300
-300
-300
100
90.6347
81.4894
72.7696
64.6542
57.2879
50.7772
45.1914
40.567
36.9149
34.2284
32.4918
31.6883
31.8052
32.8368
34.785
37.6558
41.4539
46.176
51.8021
58.2892
65.5645
73.5232
82.0286
90.916
100
100
90.7647
81.7318
73.0924
65.0159
57.643
51.0811
45.4041
40.655
36.8521
33.9959
32.078
31.0878
31.0192
31.8734
33.6598
36.3929
40.0878
44.752
50.3772
56.9305
64.3466
72.5224
81.3151
90.5443
100
-300
-300
-300
-300
-300
-300
-300
-300
-300
-300
-300
-300
-300
-300
-300
-300
-300
-300
-300
-300
-300
-300
-300
-300
100
90.5561
81.3401
72.5635
64.4078
57.0168
50.4942
44.9053
40.2828
36.6341
33.9502
32.2144
31.4096
31.5237
32.5525
34.4994
37.3721
41.177
45.9118
51.5577
58.0715
65.3805
73.3792
81.9296
90.8656
100
100
90.7641
81.7305
73.09
65.0119
57.6367
51.0713
45.3893
40.6331
36.8203
33.9509
32.0156
31.0034
30.9078
31.73
33.4801
36.1745
39.8308
44.4608
50.0614
56.606
64.0356
72.2519
81.1135
90.4362
100
-300
-300
-300
-300
-300
-300
-300
-300
-300
-300
-300
-300
-300
-300
-300
-300
-300
-300
-300
-300
-300
-300
-300
-300
100
90.4442
81.1304
72.2796
64.0766
56.6636
50.1391
44.5623
39.9596
36.3334
33.6712
31.9541
31.1641
31.2895
32.327
34.2812
37.1615
40.9756
45.7225
51.3842
57.918
65.2514
73.2784
81.8604
90.8304
100
100
90.7634
81.7289
73.0871
65.0071
57.629
51.0593
45.371
40.6058
36.7806
33.8944
31.9368
30.8961
30.7651
31.5448
33.246
35.8869
39.4886
44.0679
49.6291
56.1547
63.5957
71.8628
80.8192
90.2768
100
-300
-300
-300
-300
-300
-300
-300
-300
-300
-300
-300
-300
-300
-300
-300
-300
-300
-300
-300
-300
-300
-300
-300
-300
100
90.2821
80.8304
71.8811
63.6227
56.1924
49.6798
44.1338
39.572
35.9898
33.3695
31.6894
30.9304
31.0806
32.1375
34.1073
37.0005
40.8266
45.5858
51.261
57.8105
65.1616
73.2087
81.8127
90.8062
100
100
90.7625
81.727
73.0837
65.0014
57.6197
51.0449
45.3489
40.5728
36.7322
33.825
31.8396
30.7628
30.5864
31.3109
32.9476
35.5162
39.0416
43.547
49.0461
55.5342
62.978
71.3042
80.3878
90.0391
100
-300
-300
-300
-300
-300
-300
-300
-300
-300
-300
-300
-300
-300
-300
-300
-300
-300
-300
-300
-300
-300
-300
-300
-300
100
90.0425
80.395
71.316
62.9953
55.5584
49.0785
43.589
39.0947
35.5815
33.0259
31.4027
30.6912
30.8797
31.9667
33.9598
36.8715
40.7126
45.485
51.1727
57.7348
65.0993
73.1607
81.7802
90.7897
100
100
90.7616
81.7248
73.0798
64.9948
57.6091
51.028
45.3229
40.5337
36.6747
33.7421
31.7225
30.6012
30.368
31.0226
32.5758
35.0488
38.47
42.8696
48.2727
54.6917
62.1163
70.5014
79.7483
89.6775
100
-300
-300
-300
-300
-300
-300
-300
-300
-300
-300
-300
-300
-300
-300
-300
-300
-300
-300
-300
-300
-300
-300
-300
-300
100
89.6797
79.7529
70.5088
62.1272
54.7069
48.293
42.8959
38.5032
35.0895
32.6246
31.0798
30.4333
30.6739
31.8016
33.8259
36.7613
40.6207
45.4076
51.1076
57.6807
65.0558
73.1278
81.758
90.7785
100
100
90.7606
81.7226
73.0756
64.9876
57.5972
51.0091
45.2934
40.4889
36.6081
33.6454
31.5852
30.4102
30.1079
30.6761
32.1241
34.4738
37.7561
42.0079
47.2665
53.5646
60.9238
69.3444
78.7839
89.1077
100
-300
-300
-300
-300
-300
-300
-300
-300
-300
-300
-300
-300
-300
-300
-300
-300
-300
-300
-300
-300
-300
-300
-300
-300
100
89.1091
78.7868
69.3491
60.9306
53.574
47.279
42.024
37.7764
34.4987
32.154
30.711
30.1478
30.4546
31.6335
33.6966
36.661
40.542
45.3452
51.0577
57.641
65.0249
73.1049
81.7428
90.771
100
100
90.7597
81.7203
73.0713
64.9801
57.5845
50.9884
45.2609
40.4389
36.5333
33.536
31.4285
30.1905
29.8064
30.2706
31.5901
33.7852
36.8879
40.9395
45.9878
52.0859
59.2927
67.6741
77.2936
88.1561
100
-300
-300
-300
-300
-300
-300
-300
-300
-300
-300
-300
-300
-300
-300
-300
-300
-300
-300
-300
-300
-300
-300
-300
-300
100
88.1569
77.2954
67.6769
59.2968
52.0915
45.9953
40.9492
36.9002
33.8002
31.6081
30.2916
29.8304
30.2172
31.4575
33.5667
36.5651
40.4709
45.292
51.0176
57.6108
65.0025
73.0889
81.7325
90.7659
100
100
90.7589
81.7183
73.0674
64.9728
57.5718
50.9671
45.2265
40.3854
36.4521
33.4159
31.255
29.9454
29.467
29.81
30.9771
32.9851
35.8637
39.6546
44.4105
50.1978
57.1067
65.2741
74.926
86.4162
100
-300
-300
-300
-300
-300
-300
-300
-300
-300
-300
-300
-300
-300
-300
-300
-300
-300
-300
-300
-300
-300
-300
-300
-300
100
86.4167
74.927
65.2757
57.1091
50.2011
44.4149
39.6604
35.871
32.9939
30.9877
29.8223
29.4811
29.9611
31.2722
33.434
36.4708
40.4042
45.2449
50.9843
57.5873
64.986
73.0778
81.7255
90.7625
100
100
90.7585
81.7171
73.0644
64.9667
57.5601
50.9465
45.1922
40.3304
36.3672
33.2887
31.0693
29.6803
29.0968
29.303
30.2958
32.0858
34.6968
38.1649
42.5381
47.8801
54.2836
61.9095
71.1042
82.7933
100
100
100
100
100
100
100
100
100
100
100
100
100
100
100
100
100
100
100
100
100
100
100
100
100
100
82.7936
71.1049
61.9105
54.285
47.8821
42.5407
38.1683
34.701
32.091
30.302
29.3102
29.105
29.6894
31.0792
33.2992
36.3781
40.3413
45.2028
50.9565
57.5691
64.9743
73.0705
81.7213
90.7606
100
100
90.7588
81.7174
73.0636
64.9631
57.5514
50.929
45.1606
40.2775
36.283
33.1597
30.878
29.404
28.7068
28.764
29.5648
31.1114
33.418
36.5096
40.4194
45.1885
50.8674
57.519
65.2105
73.9079
82.7933
86.4161
88.1559
89.1075
89.677
90.0382
90.2753
90.4337
90.5401
90.611
90.6568
90.6841
90.6969
90.6969
90.6841
90.6568
90.611
90.5401
90.4337
90.2753
90.0382
89.677
89.1075
88.1559
86.4161
82.7933
73.9081
65.2109
57.5195
50.8682
45.1897
40.4209
36.5115
33.4204
31.1143
29.5683
28.7681
28.7115
29.4092
30.8836
33.1657
36.2892
40.2837
45.1666
50.9347
57.5565
64.9675
73.067
81.7197
90.76
100
100
90.7604
81.72
73.0663
64.9642
57.5481
50.9176
45.1355
40.2312
36.205
33.0359
30.69
29.1277
28.3118
28.2124
28.8099
30.0964
32.0745
34.7544
38.1498
42.2721
47.1209
52.6659
58.799
65.2105
71.1042
74.9258
77.2933
78.7834
79.7473
80.3861
80.8164
81.1087
81.3072
81.4403
81.5267
81.5784
81.6026
81.6026
81.5784
81.5267
81.4403
81.3072
81.1087
80.8164
80.3861
79.7473
78.7834
77.2933
74.9258
71.1042
65.2106
58.7993
52.6662
47.1214
42.2727
38.1507
34.7555
32.0758
30.098
28.8118
28.2147
28.3145
29.1306
30.6931
33.0393
36.2084
40.2347
45.1389
50.9208
57.551
64.9666
73.0682
81.7214
90.7611
100
100
90.7639
81.7266
73.0748
64.9728
57.5541
50.9168
45.1225
40.1979
36.1408
32.9266
30.5165
28.8656
27.9299
27.6716
28.062
29.0827
30.7238
32.9806
35.8478
39.311
43.3344
47.8388
52.6659
57.5189
61.9094
65.2738
67.6737
69.3437
70.5
71.3019
71.8588
72.2451
72.5113
72.6916
72.8096
72.8805
72.9137
72.9137
72.8805
72.8096
72.6916
72.5113
72.2451
71.8588
71.3019
70.5
69.3437
67.6737
65.2739
61.9094
57.519
52.666
47.839
43.3346
39.3114
35.8482
32.9812
30.7245
29.0836
28.0631
27.6729
27.9314
28.8672
30.5182
32.9284
36.1427
40.1998
45.1243
50.9186
57.5557
64.9741
73.0759
81.7274
90.7643
100
100
90.7706
81.7393
73.0924
64.9932
57.5745
50.933
45.1287
40.1862
36.1004
32.8432
30.3713
28.6344
27.5819
27.1681
27.3556
28.1155
29.4266
31.271
33.6282
36.4668
39.733
43.3344
47.1209
50.8673
54.2834
57.1064
59.2922
60.9229
62.1146
62.9751
63.5908
64.0274
64.333
64.5426
64.6809
64.7645
64.8039
64.8039
64.7645
64.6809
64.5426
64.333
64.0274
63.5908
62.9751
62.1146
60.9229
59.2922
57.1064
54.2835
50.8674
47.1209
43.3345
39.7331
36.467
33.6284
31.2713
29.427
28.116
27.3562
27.1688
27.5827
28.6353
30.3723
32.8442
36.1014
40.1872
45.1297
50.934
57.5753
64.9939
73.0929
81.7397
90.7708
100
100
90.7818
81.7611
73.1234
65.0313
57.6166
50.9747
45.164
40.2073
36.0966
32.8004
30.2714
28.454
27.2913
26.7307
26.7261
27.24
28.2409
29.7006
31.5883
33.8635
36.4668
39.311
42.272
45.1885
47.88
50.1975
52.0853
53.5636
54.6899
55.531
56.1493
56.5969
56.9154
57.1366
57.2838
57.3734
57.4157
57.4157
57.3734
57.2838
57.1366
56.9154
56.5969
56.1493
55.531
54.6899
53.5636
52.0853
50.1975
47.88
45.1885
42.2721
39.3111
36.4669
33.8636
31.5885
29.7008
28.2412
27.2403
26.7265
26.731
27.2918
28.4544
30.2719
32.801
36.0971
40.2078
45.1646
50.9752
57.617
65.0317
73.1237
81.7614
90.7819
100
100
90.7998
81.7963
73.1742
65.0953
57.6903
51.0536
45.2419
40.2761
36.1458
32.8166
30.2371
28.3472
27.0845
26.3896
26.2098
26.4994
27.2191
28.3331
29.8042
31.5883
33.6282
35.8478
38.1498
40.4193
42.538
44.4101
45.9871
47.2654
48.2708
49.0428
49.6234
50.0519
50.3615
50.5791
50.7253
50.8148
50.8573
50.8573
50.8148
50.7253
50.5791
50.3615
50.0519
49.6234
49.0428
48.2708
47.2654
45.9871
44.4101
42.538
40.4193
38.1498
35.8478
33.6282
31.5884
29.8043
28.3332
27.2192
26.4995
26.2099
26.3898
27.0847
28.3474
30.2374
32.8169
36.1461
40.2764
45.2422
51.0539
57.6906
65.0955
73.1744
81.7964
90.7998
100
100
90.8273
81.8505
73.2531
65.1961
57.8091
51.1852
45.3799
40.4121
36.2695
32.9149
30.2936
28.3413
26.991
26.1779
25.8431
25.9349
26.4078
27.2207
28.3331
29.7006
31.2709
32.9806
34.7543
36.5095
38.1647
39.6543
40.9389
42.0068
42.8677
43.5436
44.0622
44.4514
44.7365
44.9392
45.0765
45.1612
45.2015
45.2015
45.1612