# vtk DataFile Version 2.0
LBE two cylinders
ASCII
DATASET STRUCTURED_POINTS
DIMENSIONS 76 76 1
ASPECT_RATIO 1 1 1
ORIGIN 0 0 0
POINT_DATA 5776
SCALARS temp double 1
LOOKUP_TABLE default
100
100
100
100
100
100
100
100
100
100
100
100
100
100
100
100
100
100
100
100
100
100
100
100
100
100
-300
-300
-300
-300
-300
-300
-300
-300
-300
-300
-300
-300
-300
-300
100
100
100
100
100
100
100
100
100
100
100
100
100
100
100
100
100
100
100
100
100
100
100
100
100
100
-300
-300
-300
-300
-300
-300
-300
-300
-300
-300
100
99.1331
98.2827
97.4646
96.6933
95.9816
95.3405
94.7786
94.3028
93.9177
93.6266
93.4317
93.3339
93.3339
93.4317
93.6266
93.9177
94.3028
94.7786
95.3405
95.9816
96.6933
97.4646
98.2827
99.1331
100
-300
-300
-300
-300
-300
-300
-300
-300
-300
-300
-300
-300
-300
-300
100
99.1393
98.2948
97.4821
96.7156
96.008
95.3701
94.8105
94.3359
93.9511
93.6596
93.4633
93.3636
93.3613
93.4563
93.6483
93.9364
94.3186
94.7917
95.351
95.9898
96.6995
97.469
98.2856
99.1345
100
-300
-300
-300
-300
-300
-300
-300
-300
-300
-300
100
98.2812
96.5951
94.9729
93.4435
92.0324
90.7612
89.6473
88.7037
87.9402
87.3631
86.9765
86.7827
86.7827
86.9765
87.3631
87.9402
88.7037
89.6473
90.7612
92.0324
93.4435
94.9729
96.5951
98.2812
100
-300
-300
-300
-300
-300
-300
-300
-300
-300
-300
-300
-300
-300
-300
100
98.2945
96.6211
95.0108
93.4919
92.0897
90.8254
89.7163
88.7756
88.0128
87.4345
87.0452
86.8472
86.842
87.0299
87.4101
87.9807
88.738
89.6755
90.784
92.0503
93.4569
94.9824
96.6012
98.2842
100
-300
-300
-300
-300
-300
-300
-300
-300
-300
-300
100
97.4584
94.9651
92.5663
90.3047
88.2182
86.3385
84.6912
83.2959
82.1669
81.3135
80.7419
80.4553
80.4553
80.7419
81.3135
82.1669
83.2959
84.6912
86.3385
88.2182
90.3047
92.5663
94.9651
97.4584
100
-300
-300
-300
-300
-300
-300
-300
-300
-300
-300
-300
-300
-300
-300
100
97.481
95.0095
92.6309
90.3872
88.3158
86.4478
84.8089
83.4184
82.2906
81.4353
80.8589
80.5652
80.5563
80.8327
81.3935
82.2359
83.3541
84.7392
86.3771
88.2484
90.3275
92.5824
94.9754
97.4634
100
-300
-300
-300
-300
-300
-300
-300
-300
-300
-300
100
96.6774
93.4178
90.2819
87.3254
84.5977
82.1403
79.9868
78.1628
76.6868
75.5712
74.824
74.4493
74.4493
74.824
75.5712
76.6868
78.1628
79.9868
82.1403
84.5977
87.3254
90.2819
93.4178
96.6774
100
-300
-300
-300
-300
-300
-300
-300
-300
-300
-300
-300
-300
-300
-300
100
96.7129
93.4875
90.3833
87.455
84.7509
82.3121
80.1717
78.3551
76.8811
75.7625
75.0077
74.6219
74.6078
74.9664
75.6967
76.7949
78.2539
80.0619
82.2006
84.6447
87.3608
90.307
93.4338
96.6852
100
-300
-300
-300
-300
-300
-300
-300
-300
-300
-300
100
95.9488
91.9745
88.1509
84.5461
81.2202
78.224
75.5983
73.3743
71.5746
70.2145
69.3033
68.8465
68.8465
69.3033
70.2145
71.5746
73.3743
75.5983
78.224
81.2202
84.5461
88.1509
91.9745
95.9488
100
-300
-300
-300
-300
-300
-300
-300
-300
-300
-300
-300
-300
-300
-300
100
96.0024
92.0797
88.304
84.7417
81.4516
78.4835
75.8776
73.6649
71.8682
70.5034
69.5808
69.107
69.0857
69.5182
70.4035
71.7373
73.5113
75.7109
78.3143
81.2906
84.5989
88.1883
91.9983
95.9604
100
-300
-300
-300
-300
-300
-300
-300
-300
-300
-300
100
95.2808
90.6511
86.197
81.9979
78.1236
74.6333
71.5747
68.984
66.8876
65.3032
64.2418
63.7097
63.7097
64.2418
65.3032
66.8876
68.984
71.5747
74.6333
78.1236
81.9979
86.197
90.6511
95.2808
100
-300
-300
-300
-300
-300
-300
-300
-300
-300
-300
-300
-300
-300
-300
100
95.3598
90.8064
86.423
82.2865
78.4651
75.0162
71.9868
69.4128
67.3208
65.7294
64.6511
64.0938
64.0622
64.5582
65.5812
67.1266
69.185
71.7397
74.7654
78.2262
82.0747
86.2513
90.6857
95.2975
100
-300
-300
-300
-300
-300
-300
-300
-300
-300
-300
100
94.6788
89.4586
84.4364
79.7016
75.3332
71.3977
67.949
65.0279
62.6641
60.8776
59.6809
59.0809
59.0809
59.6809
60.8776
62.6641
65.0279
67.949
71.3977
75.3332
79.7016
84.4364
89.4586
94.6788
100
-300
-300
-300
-300
-300
-300
-300
-300
-300
-300
-300
-300
-300
-300
100
94.7933
89.6835
84.7638
80.1199
75.828
71.9527
68.5463
65.6494
63.292
61.4953
60.2738
59.6371
59.591
60.1384
61.2791
63.0088
65.3172
68.1861
71.5871
75.48
79.8112
84.5137
89.5077
94.7026
100
-300
-300
-300
-300
-300
-300
-300
-300
-300
-300
100
94.1457
88.4025
82.8772
77.668
72.8619
68.5322
64.7379
61.5242
58.9236
56.9581
55.6415
54.9815
54.9815
55.6415
56.9581
58.9236
61.5242
64.7379
68.5322
72.8619
77.668
82.8772
88.4025
94.1457
100
-300
-300
-300
-300
-300
-300
-300
-300
-300
-300
-300
-300
-300
-300
100
94.309
88.7232
83.3439
78.2645
73.5678
69.324
65.5902
62.411
59.8194
57.8393
56.4871
55.7741
55.7078
56.2924
57.5286
59.4126
61.9338
65.0728
68.799
73.0681
77.8214
82.985
88.4708
94.1787
100
-300
-300
-300
-300
-300
-300
-300
-300
-300
-300
100
93.6816
87.4831
81.5198
75.8977
70.7106
66.0377
61.9427
58.4743
55.6676
53.5463
52.1253
51.4129
51.4129
52.1253
53.5463
55.6676
58.4743
61.9427
66.0377
70.7106
75.8977
81.5198
87.4831
93.6816
100
-300
-300
-300
-300
-300
-300
-300
-300
-300
-300
-300
-300
-300
-300
100
93.911
87.9337
82.1757
76.7361
71.7029
67.1508
63.141
59.721
56.9269
54.7847
53.3133
52.5259
52.4319
53.0373
54.3445
56.3504
59.0449
62.4081
66.4073
70.9953
76.1088
81.6676
87.5765
93.7266
100
-300
-300
-300
-300
-300
-300
-300
-300
-300
-300
100
93.2845
86.6965
80.3584
74.383
68.8699
63.9033
59.551
55.8647
52.8816
50.627
49.1167
48.3596
48.3596
49.1167
50.627
52.8816
55.8647
59.551
63.9033
68.8699
74.383
80.3584
86.6965
93.2845
100
-300
-300
-300
-300
-300
-300
-300
-300
-300
-300
-300
-300
-300
-300
100
93.6021
87.3205
81.2669
75.5445
70.2449
65.4461
61.212
57.5929
54.6271
52.3431
50.7621
49.8999
49.7683
50.3759
51.7271
53.8207
56.6474
60.1874
64.4069
69.2562
74.6681
80.5573
86.8216
93.3447
100
-300
-300
-300
-300
-300
-300
-300
-300
-300
-300
100
92.9505
86.0349
79.3816
73.109
67.3218
62.1082
57.5395
53.6698
50.5384
48.1718
46.5864
45.7917
45.7917
46.5864
48.1718
50.5384
53.6698
57.5395
62.1082
67.3218
73.109
79.3816
86.0349
92.9505
100
-300
-300
-300
-300
-300
-300
-300
-300
-300
-300
-300
-300
-300
-300
100
93.3842
86.887
80.6225
74.6958
69.2006
64.2168
59.81
56.0324
52.9243
50.5167
48.8334
47.8933
47.7115
48.2998
49.6657
51.8105
54.7269
58.3957
62.7829
67.8369
73.4872
79.644
86.1992
93.0294
100
-300
-300
-300
-300
-300
-300
-300
-300
-300
-300
100
92.6744
85.4879
78.574
72.0557
66.0418
60.6241
55.8765
51.8553
48.6013
46.1419
44.4945
43.6686
43.6686
44.4945
46.1419
48.6013
51.8553
55.8765
60.6241
66.0418
72.0557
78.574
85.4879
92.6744
100
-300
-300
-300
-300
-300
-300
-300
-300
-300
-300
-300
-300
-300
-300
100
93.2584
86.6355
80.2455
74.1938
68.5742
63.4669
58.9382
55.0413
51.8183
49.3025
47.5211
46.4965
46.2483
46.7925
48.1409
50.2985
53.2607
57.01
61.5127
66.7164
72.5479
78.9133
85.6992
92.7754
100
-300
-300
-300
-300
-300
-300
-300
-300
-300
-300
100
92.45
85.0433
77.9176
71.1997
65.0016
59.4179
54.5249
50.3805
47.0269
44.4922
42.7943
41.9432
41.9432
42.7943
44.4922
47.0269
50.3805
54.5249
59.4179
65.0016
71.1997
77.9176
85.0433
92.45
100
-300
-300
-300
-300
-300
-300
-300
-300
-300
-300
-300
-300
-300
-300
100
93.2256
86.5677
80.1386
74.0416
68.3688
63.1992
58.5984
54.6199
51.3069
48.6954
46.8161
45.6964
45.3613
45.8328
47.1281
49.2573
52.2198
56.0008
60.5679
65.8684
71.8272
78.3468
85.3086
92.5762
100
-300
-300
-300
-300
-300
-300
-300
-300
-300
-300
100
92.2707
84.6881
77.3932
70.5157
64.1704
58.4542
53.445
49.2022
45.7689
43.1741
41.4359
40.5646
40.5646
41.4359
43.1741
45.7689
49.2022
53.445
58.4542
64.1704
70.5157
77.3932
84.6881
92.2707
100
-300
-300
-300
-300
-300
-300
-300
-300
-300
-300
-300
-300
-300
-300
100
93.2868
86.6858
80.3046
74.2427
68.5885
63.4178
58.7941
54.77
51.3894
48.6909
46.7096
45.4792
45.0317
45.3968
46.5994
48.6559
51.5712
55.3346
59.9159
65.2627
71.2987
77.9232
85.0126
92.4239
100
-300
-300
-300
-300
-300
-300
-300
-300
-300
-300
100
92.1298
84.4091
76.9812
69.9784
63.5175
57.6972
52.5967
48.2766
44.7808
42.1387
40.3689
39.4817
39.4817
40.3689
42.1387
44.7808
48.2766
52.5967
57.6972
63.5175
69.9784
76.9812
84.4091
92.1298
100
-300
-300
-300
-300
-300
-300
-300
-300
-300
-300
-300
-300
-300
-300
100
93.4433
86.9921
80.7473
74.8022
69.2392
64.1291
59.5315
55.4965
52.0682
49.2876
47.1952
45.8324
45.2408
45.4602
46.5251
48.4608
51.2791
54.9745
59.5202
64.8651
70.9323
77.6181
84.7939
92.3099
100
-300
-300
-300
-300
-300
-300
-300
-300
-300
-300
100
92.0211
84.1936
76.663
69.5635
63.0133
57.1125
51.9415
47.5618
44.0177
41.3391
39.5448
38.6453
38.6453
39.5448
41.3391
44.0177
47.5618
51.9415
57.1125
63.0133
69.5635
76.663
84.1936
92.0211
100
-300
-300
-300
-300
-300
-300
-300
-300
-300
-300
-300
-300
-300
-300
100
93.6965
87.4894
81.4712
75.7262
70.3288
65.3426
60.8207
56.8094
53.3511
50.489
48.2703
46.7463
45.9714
45.9986
46.875
48.6369
51.305
54.8806
59.3413
64.6383
70.6946
77.4041
84.6331
92.2237
100
-300
-300
-300
-300
-300
-300
-300
-300
-300
-300
100
91.9384
84.0299
76.4214
69.2483
62.6303
56.6685
51.444
47.0189
43.4381
40.7318
38.9189
38.0102
38.0102
38.9189
40.7318
43.4381
47.0189
51.4439
56.6685
62.6303
69.2483
76.4214
84.0299
91.9384
100
-300
-300
-300
-300
-300
-300
-300
-300
-300
-300
-300
-300
-300
-300
100
94.0475
88.1806
82.4807
77.0216
71.8671
67.0707
62.6767
58.7242
55.252
52.3049
49.9373
48.2144
47.2074
46.9871
47.6168
49.1465
51.6078
55.0098
59.3358
64.5406
70.5479
77.2497
84.5072
92.1534
100
-300
-300
-300
-300
-300
-300
-300
-300
-300
-300
100
91.8767
83.9077
76.2409
69.013
62.3444
56.3369
51.0724
46.6135
43.0054
40.2784
38.4516
37.5359
37.5359
38.4516
40.2783
43.0053
46.6135
51.0724
56.3369
62.3444
69.013
76.2409
83.9077
91.8767
100
-300
-300
-300
-300
-300
-300
-300
-300
-300
-300
-300
-300
-300
-300
100
94.4972
89.0674
83.7796
78.6949
73.8643
69.3283
65.1187
61.2632
57.7933
54.7526
52.2047
50.2331
48.933
48.3992
48.7156
49.9486
52.1421
55.3145
59.4557
64.5251
70.4487
77.1178
84.3887
92.0842
100
-300
-300
-300
-300
-300
-300
-300
-300
-300
-300
100
91.8314
83.8179
76.1084
68.8402
62.1344
56.0934
50.7996
46.3159
42.6876
39.9454
38.1085
37.1876
37.1876
38.1084
39.9454
42.6875
46.3158
50.7996
56.0934
62.1344
68.8402
76.1084
83.8179
91.8314
100
-300
-300
-300
-300
-300
-300
-300
-300
-300
-300
-300
-300
-300
-300
100
95.045
90.1495
85.3687
80.7498
76.329
72.1308
68.1699
64.4566
61.0075
57.86
55.0872
52.8004
51.1302
50.2038
50.1309
50.9964
52.8574
55.7417
59.6468
64.5379
70.3455
76.9628
84.2427
91.9969
100
-300
-300
-300
-300
-300
-300
-300
-300
-300
-300
100
91.7987
83.7531
76.0127
68.7154
61.9827
55.9176
50.6026
46.1009
42.4581
39.7049
37.8606
36.9361
36.9361
37.8606
39.7049
42.458
46.1008
50.6025
55.9175
61.9827
68.7153
76.0127
83.7531
91.7987
100
-300
-300
-300
-300
-300
-300
-300
-300
-300
-300
-300
-300
-300
-300
100
95.6883
91.4225
87.2437
83.1845
79.2651
75.4918
71.8568
68.3442
64.9428
61.6707
58.6085
55.9142
53.7741
52.3604
51.8128
52.235
53.6959
56.2319
59.8479
64.5166
70.1763
76.7267
84.0222
91.8643
100
-300
-300
-300
-300
-300
-300
-300
-300
-300
-300
100
91.7755
83.7071
75.9448
68.6267
61.875
55.7927
50.4626
45.9482
42.295
39.5341
37.6846
36.7574
36.7574
37.6846
39.534
42.295
45.9481
50.4625
55.7926
61.8749
68.6267
75.9447
83.707
91.7755
100
-300
-300
-300
-300
-300
-300
-300
-300
-300
-300
-300
-300
-300
-300
100
96.4218
92.8764
89.392
85.9871
82.6668
79.4178
76.2062
72.9781
69.6724
66.2568
62.8041
59.5668
56.8255
54.8122
53.6974
53.5987
54.592
56.719
59.9907
64.3891
69.865
76.3331
83.6599
91.645
100
-300
-300
-300
-300
-300
-300
-300
-300
-300
-300
100
91.7592
83.6749
75.8973
68.5648
61.7997
55.7054
50.3648
45.8415
42.1811
39.4147
37.5616
36.6326
36.6326
37.5615
39.4146
42.181
45.8413
50.3647
55.7053
61.7996
68.5647
75.8972
83.6748
91.7592
100
-300
-300
-300
-300
-300
-300
-300
-300
-300
-300
-300
-300
-300
-300
100
97.236
94.4935
91.7893
89.1309
86.5111
83.9003
81.2386
78.4249
75.3142
71.7511
67.7261
63.732
60.2155
57.4759
55.7013
55.0093
55.4727
57.1319
60.0019
64.0746
69.3193
75.6786
83.0536
91.2678
100
-300
-300
-300
-300
-300
-300
-300
-300
-300
-300
100
91.7481
83.6528
75.8646
68.5222
61.748
55.6454
50.2976
45.7681
42.1028
39.3326
37.477
36.5468
36.5467
37.4769
39.3325
42.1026
45.7679
50.2974
55.6452
61.7478
68.522
75.8645
83.6527
91.748
100
-300
-300
-300
-300
-300
-300
-300
-300
-300
-300
-300
-300
-300
-300
100
98.1169
96.2462
94.3964
92.568
90.7479
88.9002
86.9505
84.7575
82.0633
78.4391
73.4375
68.3296
63.818
60.2272
57.717
56.3768
56.2606
57.3998
59.8088
63.4887
68.4313
74.6226
82.0371
90.5941
100
-300
-300
-300
-300
-300
-300
-300
-300
-300
-300
100
91.7405
83.6379
75.8426
68.4934
61.713
55.6048
50.2521
45.7185
42.0498
39.2771
37.4198
36.4887
36.4886
37.4196
39.2769
42.0495
45.7181
50.2517
55.6044
61.7126
68.4931
75.8423
83.6377
91.7404
100
-300
-300
-300
-300
-300
-300
-300
-300
-300
-300
-300
-300
-300
-300
100
99.0459
98.0972
97.1573
96.2246
95.289
94.3243
93.2732
92.0078
90.2188
87.0637
79.9317
73.1285
67.4046
62.8885
59.614
57.6048
56.8818
57.4605
59.35
62.5556
67.0883
72.983
80.3316
89.3092
100
-300
-300
-300
-300
-300
-300
-300
-300
-300
-300
100
91.7355
83.6279
75.8279
68.4743
61.6897
55.5778
50.2218
45.6855
42.0145
39.2401
37.3816
36.4499
36.4498
37.3814
39.2397
42.014
45.6849
50.2212
55.5771
61.6891
68.4737
75.8274
83.6276
91.7353
100
-300
-300
-300
-300
-300
-300
-300
-300
-300
-300
-300
-300
-300
-300
100
100
100
100
100
100
100
100
100
100
100
86.6079
77.526
70.6014
65.2365
61.2539
58.6039
57.2766
57.2721
58.5905
61.2323
65.2076
70.5675
77.4909
86.5799
100
100
100
100
100
100
100
100
100
100
100
100
91.7322
83.6214
75.8182
68.4617
61.6745
55.5601
50.202
45.6638
41.9913
39.2158
37.3565
36.4244
36.4242
37.3561
39.2151
41.9905
45.6627
50.2009
55.5589
61.6734
68.4607
75.8174
83.6208
91.7319
100
-300
-300
-300
-300
-300
-300
-300
-300
-300
-300
-300
-300
-300
-300
-300
-300
-300
-300
-300
-300
-300
-300
-300
-300
100
89.3132
80.3329
72.9771
67.0726
62.5292
59.3125
57.4124
56.8236
57.5377
59.5394
62.8081
67.321
73.0453
79.8541
86.9975
90.1585
91.9523
93.2227
94.2794
95.2503
96.1928
97.1329
98.0807
99.0376
100
100
91.7301
83.6172
75.812
68.4536
61.6646
55.5486
50.1891
45.6497
41.9763
39.1999
37.34
36.4076
36.4074
37.3394
39.1988
41.9748
45.648
50.1872
55.5467
61.6627
68.4519
75.8107
83.6162
91.7296
100
-300
-300
-300
-300
-300
-300
-300
-300
-300
-300
-300
-300
-300
-300
-300
-300
-300
-300
-300
-300
-300
-300
-300
-300
100
90.5816
82.0099
74.5791
68.3706
63.411
59.7151
57.2913
56.139
56.2442
57.5758
60.08
63.6679
68.1801
73.2925
78.3022
81.9347
84.638
86.8415
88.8032
90.6644
92.4993
94.3437
96.2106
98.0989
100
100
91.7287
83.6145
75.808
68.4484
61.6582
55.5412
50.1808
45.6405
41.9664
39.1895
37.3292
36.3965
36.3961
37.3281
39.1878
41.9641
45.6378
50.1777
55.5381
61.6552
68.4457
75.8058
83.6129
91.7279
100
-300
-300
-300
-300
-300
-300
-300
-300
-300
-300
-300
-300
-300
-300
-300
-300
-300
-300
-300
-300
-300
-300
-300
-300
100
91.2394
82.9965
75.5928
69.2056
63.9344
59.8374
56.9459
55.2681
54.7896
55.4701
57.237
59.973
63.4902
67.4892
71.523
75.0978
78.2231
81.0541
83.736
86.3694
89.0145
91.7
94.433
97.2055
100
100
91.7279
83.6128
75.8055
68.445
61.6542
55.5365
50.1754
45.6345
41.9599
39.1826
37.3219
36.3888
36.3882
37.3201
39.1797
41.9562
45.6301
50.1704
55.5314
61.6493
68.4407
75.8019
83.6102
91.7266
100
-300
-300
-300
-300
-300
-300
-300
-300
-300
-300
-300
-300
-300
-300
-300
-300
-300
-300
-300
-300
-300
-300
-300
-300
100
91.5975
83.5656
76.1933
69.6819
64.1657
59.731
56.4274
54.2735
53.2583
53.3406
54.4447
56.453
59.195
62.4388
65.9034
69.3361
72.6638
75.9186
79.1614
82.4458
85.8054
89.2527
92.7821
96.3742
100
100
91.7273
83.6117
75.8039
68.4429
61.6515
55.5333
50.1717
45.6304
41.9553
39.1775
37.3164
36.383
36.382
37.3136
39.173
41.9493
45.6233
50.1638
55.5252
61.6437
68.4359
75.7981
83.6076
91.7252
100
-300
-300
-300
-300
-300
-300
-300
-300
-300
-300
-300
-300
-300
-300
-300
-300
-300
-300
-300
-300
-300
-300
-300
-300
100
91.7915
83.8779
76.5137
69.8983
64.1788
59.4564
55.7935
53.218
51.7254
51.2796
51.8117
53.2182
55.3593
58.0628
61.1422
64.4393
67.8733
71.4256
75.1073
78.9338
82.9119
87.0348
91.281
95.6169
100
100
91.7269
83.6109
75.8027
68.4414
61.6496
55.531
50.169
45.6272
41.9517
39.1734
37.3117
36.3777
36.3762
37.3073
39.1662
41.9422
45.616
50.1566
55.5182
61.6373
68.4303
75.7937
83.6045
91.7236
100
-300
-300
-300
-300
-300
-300
-300
-300
-300
-300
-300
-300
-300
-300
-300
-300
-300
-300
-300
-300
-300
-300
-300
-300
100
91.8894
84.0299
76.6489
69.9364
64.0414
59.0721
55.0988
52.1573
50.2506
49.351
49.4017
50.3177
51.9895
54.2896
57.0874
60.2712
63.7677
67.5391
71.5683
75.8441
80.351
85.063
89.9424
94.9405
100
100
91.7267
83.6104
75.8019
68.4402
61.6481
55.5291
50.1666
45.6243
41.9482
39.1692
37.3068
36.372
36.3696
37.2999
39.158
41.9334
45.6068
50.1473
55.5091
61.6288
68.4229
75.7877
83.6003
91.7214
100
-300
-300
-300
-300
-300
-300
-300
-300
-300
-300
-300
-300
-300
-300
-300
-300
-300
-300
-300
-300
-300
-300
-300
-300
100
91.9291
84.0817
76.665
69.859
63.8098
58.6282
54.3894
51.1352
48.8764
47.5949
47.2469
47.7662
49.0686
51.0594
53.6431
56.7359
60.2739
64.2127
68.5204
73.1679
78.1221
83.3406
88.7701
94.3471
100
100
91.7264
83.6099
75.8011
68.4392
61.6466
55.5272
50.1641
45.6212
41.9442
39.1643
37.3008
36.3648
36.3612
37.2901
39.1471
41.9215
45.5941
50.1343
55.4964
61.6168
68.4123
75.7791
83.5943
91.7183
100
-300
-300
-300
-300
-300
-300
-300
-300
-300
-300
-300
-300
-300
-300
-300
-300
-300
-300
-300
-300
-300
-300
-300
-300
100
91.9334
84.0717
76.6077
69.7121
63.5273
58.1639
53.7002
50.1829
47.6297
46.0319
45.358
45.5581
46.5687
48.3189
50.7371
53.758
57.3263
61.3968
65.9294
70.8834
76.2124
81.8605
87.7606
93.8355
100
100
91.7262
83.6094
75.8003
68.438
61.645
55.5249
50.1611
45.6172
41.9391
39.1578
37.2928
36.3551
36.3496
37.2767
39.1318
41.9046
45.5761
50.1158
55.478
61.5995
68.397
75.7667
83.5855
91.7138
100
-300
-300
-300
-300
-300
-300
-300
-300
-300
-300
-300
-300
-300
-300
-300
-300
-300
-300
-300
-300
-300
-300
-300
-300
100
91.9165
84.025
76.5079
69.5282
63.2246
57.7069
53.0549
49.3194
46.5238
44.6676
43.7303
43.6755
44.4559
46.0181
48.3077
51.2725
54.8648
59.0403
63.755
68.9605
74.6007
80.6085
86.9053
93.4016
100
100
91.7259
83.6088
75.7994
68.4365
61.6429
55.522
50.1572
45.612
41.9323
39.1491
37.2818
36.3416
36.3334
37.2577
39.1102
41.8806
45.5503
50.089
55.4514
61.5743
68.3746
75.7484
83.5726
91.7071
100
-300
-300
-300
-300
-300
-300
-300
-300
-300
-300
-300
-300
-300
-300
-300
-300
-300
-300
-300
-300
-300
-300
-300
-300
100
91.8871
83.9575
76.3854
69.3285
62.922
57.2744
52.4668
48.5528
45.5606
43.4965
42.349
42.0924
42.6922
44.1081
46.2979
49.2197
52.8319
57.092
61.954
67.3646
73.2603
79.5655
86.1918
93.0394
100
100
91.7256
83.6081
75.7981
68.4346
61.6402
55.5182
50.152
45.605
41.923
39.1371
37.2667
36.3228
36.3107
37.231
39.0795
41.8464
45.5134
50.0506
55.4131
61.5379
68.3421
75.7219
83.5537
91.6973
100
-300
-300
-300
-300
-300
-300
-300
-300
-300
-300
-300
-300
-300
-300
-300
-300
-300
-300
-300
-300
-300
-300
-300
-300
100
91.8506
83.8783
76.252
69.1251
62.6302
56.8747
51.9402
47.8824
44.7334
42.5047
41.1919
40.7778
41.2373
42.5403
44.6539
47.5435
51.1727
55.5011
60.4818
66.0582
72.1617
78.7096
85.6057
92.7417
100
100
91.7251
83.6071
75.7965
68.4321
61.6366
55.5131
50.1449
45.5954
41.9104
39.1207
37.2458
36.2969
36.2793
37.1937
39.0366
41.7983
45.4613
49.996
55.3583
61.4856
68.2953
75.6835
83.5265
91.6831
100
-300
-300
-300
-300
-300
-300
-300
-300
-300
-300
-300
-300
-300
-300
-300
-300
-300
-300
-300
-300
-300
-300
-300
-300
100
91.8093
83.7918
76.1128
68.9229
62.3525
56.5083
51.4719
47.3005
44.0288
41.6725
40.2322
39.6974
40.0501
41.2676
43.3239
46.1905
49.8348
54.2185
59.2944
65.0038
71.274
78.0175
85.1315
92.5007
100
100
91.7245
83.6058
75.7943
68.4289
61.6318
55.5063
50.1355
45.5827
41.8934
39.0986
37.2176
36.2616
36.2362
37.1425
38.9772
41.7315
45.3883
49.9192
55.2808
61.4113
68.2285
75.6286
83.4873
91.6627
100
-300
-300
-300
-300
-300
-300
-300
-300
-300
-300
-300
-300
-300
-300
-300
-300
-300
-300
-300
-300
-300
-300
-300
-300
100
91.7637
83.6986
75.9679
68.7207
62.0859
56.1694
51.0528
46.7937
43.4287
40.9762
39.4406
38.8159
39.0895
40.2442
42.2592
45.1105
48.7687
53.1973
58.3491
64.1642
70.567
77.4659
84.7534
92.3085
100
100
91.7237
83.6041
75.7916
68.4246
61.6256
55.4975
50.1232
45.5659
41.8709
39.0691
37.1798
36.2143
36.1782
37.073
38.8962
41.6397
45.2875
49.8126
55.1725
61.3069
68.134
75.5505
83.4314
91.6336
100
-300
-300
-300
-300
-300
-300
-300
-300
-300
-300
-300
-300
-300
-300
-300
-300
-300
-300
-300
-300
-300
-300
-300
-300
100
91.7124
83.5957
75.8129
68.5123
61.822
55.8472
50.6689
46.3447
42.9118
40.3901
38.7865
38.0981
38.316
39.4269
41.4142
44.2569
47.9285
52.3938
57.6061
63.5045
70.0115
77.0325
84.4563
92.1574
100
100
91.7228
83.602
75.788
68.4192
61.6176
55.4861
50.1073
45.5441
41.8417
39.0306
37.1302
36.1517
36.101
36.9801
38.7872
41.5153
45.1502
49.6661
55.0227
61.1613
68.0014
75.4402
83.3522
91.5921
100
-300
-300
-300
-300
-300
-300
-300
-300
-300
-300
-300
-300
-300
-300
-300
-300
-300
-300
-300
-300
-300
-300
-300
-300
100
91.6523
83.4773
75.6391
68.2867
61.5477
55.5263
50.3025
45.933
42.4545
39.8874
38.2394
37.5098
37.6921
38.7757
40.7469
43.5873
47.2725
51.7684
57.029
62.9927
69.5809
76.6967
84.2261
92.0404
100
100
91.7215
83.5994
75.7836
68.4124
61.6076
55.4717
50.087
45.5163
41.8042
38.9811
37.0661
36.0703
36.0001
36.8578
38.6427
41.3493
44.9652
49.4672
54.8176
60.9602
67.8168
75.2856
83.2403
91.5333
100
-300
-300
-300
-300
-300
-300
-300
-300
-300
-300
-300
-300
-300
-300
-300
-300
-300
-300
-300
-300
-300
-300
-300
-300
100
91.5783
83.3337
75.4334
68.028
61.245
55.1873
49.9327
45.536
42.0324
39.4411
37.7701
37.0192
37.1835
38.2543
40.2199
43.0638
46.7633
51.2856
56.5851
62.6001
69.251
76.4397
84.0501
91.9509
100
100
91.72
83.5962
75.7782
68.4041
61.5952
55.4538
50.0619
45.4815
41.7571
38.9185
36.9846
35.9664
35.8703
36.6994
38.4542
41.1309
44.7196
49.2005
54.5397
60.6849
67.5614
75.0695
83.0828
91.4501
100
-300
-300
-300
-300
-300
-300
-300
-300
-300
-300
-300
-300
-300
-300
-300
-300
-300
-300
-300
-300
-300
-300
-300
-300
100
91.4831
83.1512
75.1775
67.715
60.8912
54.8067
49.5356
45.1294
41.6202
39.025
37.3507
36.5971
36.7595
37.8307
39.8002
42.6534
46.3688
50.9147
56.2461
62.3015
69.001
76.2453
83.9171
91.8834
100
100
91.7183
83.5924
75.7718
68.394
61.5802
55.4322
50.0312
45.4389
41.6991
38.841
36.883
35.836
35.7063
36.4978
38.212
40.8477
44.3979
48.8472
54.167
60.3108
67.2099
74.7685
82.8611
91.3321
100
-300
-300
-300
-300
-300
-300
-300
-300
-300
-300
-300
-300
-300
-300
-300
-300
-300
-300
-300
-300
-300
-300
-300
-300
100
91.3559
82.9102
74.8459
67.3197
60.4579
54.3567
49.0847
44.6876
41.1929
38.6142
36.956
36.2171
36.393
37.4769
39.4596
42.3279
46.0613
50.6294
55.988
62.0758
68.8129
76.0996
83.8176
91.833
100
100
91.7162
83.5879
75.7642
68.3822
61.5626
55.4064
49.9946
45.3877
41.6289
38.7468
36.7587
35.6753
35.5028
36.2455
37.9063
40.4863
43.9826
48.3851
53.6724
59.8067
66.7282
74.3492
82.5477
91.1635
100
-300
-300
-300
-300
-300
-300
-300
-300
-300
-300
-300
-300
-300
-300
-300
-300
-300
-300
-300
-300
-300
-300
-300
-300
100
91.1803
82.5823
74.4038
66.8054
59.9098
53.805
48.5508
44.1843
40.7263
38.1855
36.5632
35.8567
36.0609
37.1697
39.1747
42.0638
45.8181
50.4083
55.7909
61.9054
68.672
75.991
83.7438
91.7956
100
100
91.7139
83.5829
75.7557
68.3688
61.5423
55.3766
49.9518
45.3276
41.546
38.6346
36.6098
35.4814
35.2553
35.9358
37.5273
40.0332
43.455
47.7892
53.0236
59.1325
66.0704
73.7639
82.101
90.9193
100
-300
-300
-300
-300
-300
-300
-300
-300
-300
-300
-300
-300
-300
-300
-300
-300
-300
-300
-300
-300
-300
-300
-300
-300
100
90.931
82.125
73.8017
66.1238
59.2036
53.1149
47.903
43.5933
40.1975
37.7182
36.1529
35.4968
35.7445
36.8901
38.9263
41.8425
45.621
50.2338
55.6387
61.776
68.5664
75.9103
83.6892
91.7681
100
100
91.7115
83.5775
75.7463
68.3539
61.5196
55.343
49.9031
45.2586
41.4502
38.504
36.4352
35.2523
34.9602
35.5633
37.0665
39.4755
42.7963
47.0326
52.1834
58.2389
65.1748
72.9431
81.4553
90.5571
100
-300
-300
-300
-300
-300
-300
-300
-300
-300
-300
-300
-300
-300
-300
-300
-300
-300
-300
-300
-300
-300
-300
-300
-300
100
90.5651
81.4717
72.9689
65.2111
58.2872
52.2452
47.1096
42.8897
39.5863
37.1951
35.7094
35.1227
35.4291
36.6236
38.7
41.6494
45.4558
50.0926
55.5191
61.6767
68.4867
75.8503
83.649
91.7479
100
100
91.709
83.572
75.7366
68.3382
61.4952
55.3064
49.8494
45.1816
41.3423
38.3556
36.2352
34.9876
34.6164
35.125
36.5182
38.8035
41.9903
46.0896
51.1123
57.0677
63.9608
71.7848
80.5021
89.9988
100
-300
-300
-300
-300
-300
-300
-300
-300
-300
-300
-300
-300
-300
-300
-300
-300
-300
-300
-300
-300
-300
-300
-300
-300
100
90.0041
80.5132
71.8021
63.9851
57.1
51.1535
46.1409
42.0525
38.8771
36.6036
35.2219
34.7241
35.1048
36.3599
38.4855
41.4742
45.3122
49.9749
55.423
61.5992
68.4261
75.8055
83.6193
91.7331
100
100
91.7066
83.5667
75.7271
68.3223
61.4701
55.2679
49.7921
45.0984
41.2241
38.1916
36.0119
34.6894
34.2254
34.6215
35.8814
38.0125
41.0266
44.9398
49.7737
55.5567
62.3283
70.1412
79.055
89.0832
100
-300
-300
-300
-300
-300
-300
-300
-300
-300
-300
-300
-300
-300
-300
-300
-300
-300
-300
-300
-300
-300
-300
-300
-300
100
89.0868
79.0623
70.1526
62.3443
55.5779
49.8008
44.9735
41.0673
38.0607
35.9372
34.6848
34.2958
34.7659
36.0933
38.2763
41.3102
45.1836
49.874
55.344
61.538
68.3798
75.772
83.5976
91.7224
100
100
91.7048
83.5623
75.7187
68.3078
61.4459
55.2296
49.7335
45.0116
41.0991
38.0156
35.7697
34.3626
33.7926
34.0583
35.161
37.1062
39.9051
43.5754
48.144
53.6526
60.169
67.8112
76.7875
87.4332
100
-300
-300
-300
-300
-300
-300
-300
-300
-300
-300
-300
-300
-300
-300
-300
-300
-300
-300
-300
-300
-300
-300
-300
-300
100
87.4356
76.7923
67.8186
60.1794
53.6663
48.1616
43.5971
39.9314
37.1373
35.197
34.0991
33.8379
34.4118
35.8221
38.0701
41.1545
45.0664
49.7862
55.2785
61.4896
68.3447
75.7477
83.5822
91.7149
100
100
91.7039
83.5598
75.713
68.2963
61.4251
55.1944
49.6773
44.9256
40.9721
37.8337
35.5155
34.0153
33.3276
33.4468
34.37
36.0987
38.6402
42.0086
46.2277
51.3368
57.4064
64.5758
73.1634
84.0324
100
100
100
100
100
100
100
100
100
100
100
100
100
100
100
100
100
100
100
100
100
100
100
100
100
100
84.0339
73.1664
64.5805
57.413
51.3456
46.2388
42.0224
38.6569
36.1185
34.3928
33.4727
33.3563
34.0466
35.5487
37.8682
41.0072
44.9603
49.7107
55.2254
61.4528
68.3197
75.7313
83.5724
91.7103
100
100
91.7046
83.5603
75.7117
68.2905
61.4109
55.1664
49.6282
44.8461
40.8501
37.6539
35.2592
33.6595
32.8447
32.8042
33.5296
35.0161
37.264
40.2786
44.0713
48.6616
54.0804
60.3758
67.6059
75.7415
84.0322
87.4329
89.0827
89.9979
90.5557
90.9171
91.16
91.3266
91.4416
91.5203
91.5724
91.6042
91.6192
91.6192
91.6042
91.5724
91.5203
91.4416
91.3266
91.16
90.9171
90.5557
89.9979
89.0827
87.4331
84.0326
75.7426
67.6079
60.3788
54.0846
48.6671
44.0784
40.2873
37.2745
35.0285
33.5439
32.8204
32.8627
33.679
35.2799
37.6755
40.872
44.8678
49.6491
55.1857
61.4282
68.3052
75.7232
83.5682
91.7086
100
100
91.7078
83.5658
75.7177
68.294
61.4078
55.1509
49.5928
44.7808
40.742
37.4871
35.0135
33.3106
32.3629
32.154
32.669
33.8957
35.825
38.4505
41.7667
45.7664
50.4342
55.7307
61.5504
67.6058
73.1631
76.787
79.054
80.5005
81.4526
82.0967
82.5409
82.8505
83.0664
83.2152
83.3142
83.3747
83.4033
83.4033
83.3747
83.3142
83.2152
83.0664
82.8505
82.5409
82.0967
81.4526
80.5005
79.0541
76.7871
73.1634
67.6065
61.5517
55.7326
50.4368
45.7699
41.771
38.4558
35.8314
33.9033
32.6778
32.164
32.3739
33.3226
35.0263
37.5004
40.7555
44.7941
49.6056
55.1629
61.4185
68.303
75.7247
83.5707
91.7102
100
100
91.7146
83.5785
75.7343
68.3116
61.4218
55.1553
49.5796
44.7395
40.6596
37.3467
34.7946
32.9876
31.9051
31.5246
31.8239
32.7829
34.3828
36.6051
39.4281
42.8219
46.7382
51.0924
55.7306
60.3755
64.5753
67.8103
70.1398
71.7825
72.9393
73.7578
74.3395
74.7534
75.0462
75.2499
75.3865
75.4702
75.51
75.51
75.4702
75.3865
75.2499
75.0462
74.7534
74.3395
73.7578
72.9393
71.7825
70.1398
67.8105
64.5755
60.376
55.7314
51.0936
46.7398
42.824
39.4308
36.6083
34.3867
32.7875
31.8293
31.5306
31.9118
32.9949
34.8024
37.3548
40.6678
44.7476
49.5873
55.1625
61.4282
68.317
75.7386
83.5815
91.7161
100
100
91.7266
83.6016
75.7664
68.3492
61.4604
55.1886
49.5993
44.7349
40.6171
37.2495
34.6216
32.7132
31.4984
30.9483
31.0343
31.7281
33.002
34.8271
37.1692
39.9835
43.2055
46.7381
50.434
54.08
57.4058
60.1679
62.3265
63.9579
65.1701
66.0628
66.7163
67.1912
67.5326
67.7729
67.9353
68.0354
68.0831
68.0831
68.0354
67.9353
67.7729
67.5326
67.1912
66.7163
66.0628
65.1701
63.9579
62.3265
60.1681
57.406
54.0804
50.4345
46.7388
43.2065
39.9847
37.1708
34.8291
33.0044
31.7308
31.0375
30.9519
31.5024
32.7176
34.6262
37.2543
40.622
44.7398
49.6039
55.193
61.4643
68.3525
75.7689
83.6034
91.7275
100
100
91.7459
83.6391
75.8198
68.415
61.5337
55.2626
49.6655
44.7824
40.6323
37.2153
34.5172
32.5134
31.1727
30.4608
30.3426
30.7828
31.7463
33.1961
35.0898
37.3751
39.9835
42.8218
45.7662
48.6611
51.3361
53.6514
55.5547
57.0644
58.2335
59.1238
59.793
60.2896
60.6522
60.9105
61.0865
61.1958
61.248
61.248
61.1958
61.0865
60.9105
60.6522
60.2896
59.793
59.1238
58.2335
57.0644
55.5547
53.6514
51.3362
48.6613
45.7665
42.8222
39.984
37.3759
35.0907
33.1972
31.7477
30.7844
30.3444
30.463
31.1751
32.5159
34.5199
37.2181
40.6352
44.7853
49.6682
55.2652
61.5359
68.417
75.8213
83.6401
91.7465
100
100
91.7751
83.6961
75.9022
68.519
61.6538
55.3919
49.795
44.901
40.7262
37.2676
34.5077
32.4175
30.9614
30.0999
29.7924
29.9979
30.6755
31.7825
33.272
35.0897
37.1691
39.428
41.7665
44.0709
46.2269
48.1427
49.7715
51.1087
52.1776
53.0143
53.6578
54.1443
54.5049
54.7648
54.9434
55.055
55.1085
55.1085
55.055
54.9434
54.7648
54.5049
54.1443
53.6578
53.0143
52.1776
51.1087
49.7715
48.1428
46.227
44.071
41.7666
39.4282
37.1695
35.0902
33.2726
31.7831
30.6763
29.9989
29.7935
30.1012
30.9627
32.419
34.5092
37.2693
40.7278
44.9027
49.7966
55.3934
61.6551
68.5201
75.9031
83.6967
91.7754
100
100
91.8172
83.779
76.023
68.6734
61.8359
55.5943
50.0082
45.1135
40.9241
37.4343
34.6233
32.4586
30.9006
29.9055
29.4281
29.423
29.8448
30.6475
31.7825
33.196
34.827
36.6049
38.4502
40.2782
42.0078
43.574
44.9376
46.0859
47.0267
47.7797